<?xml version="1.0" encoding="UTF-8"?>

<!-- generated on 2026-03-24T18:33:46.529138+00:00 by Eclipse SUMO GUI 1.26.0
<sumoConfiguration xmlns:xsi="http://www.w3.org/2001/XMLSchema-instance" xsi:noNamespaceSchemaLocation="http://sumo.dlr.de/xsd/sumoConfiguration.xsd">

    <input>
        <net-file value="simulation/configs/../network/chicago.net.xml"/>
        <route-files value="simulation/configs/../routes/chicago_high.rou.xml"/>
    </input>

    <output>
        <tripinfo-output value="simulation/configs/../../results/tripinfo_ai_high.xml"/>
        <edgedata-output value="simulation/configs/../../results/edge_data_ai_high.xml"/>
    </output>

    <time>
        <begin value="0"/>
        <end value="3600"/>
    </time>

    <traci_server>
        <remote-port value="63277"/>
    </traci_server>

</sumoConfiguration>
-->

<tripinfos xmlns:xsi="http://www.w3.org/2001/XMLSchema-instance" xsi:noNamespaceSchemaLocation="http://sumo.dlr.de/xsd/tripinfo_file.xsd">
    <tripinfo id="41" depart="41.00" departLane="-292339723#2_0" departPos="5.10" departSpeed="0.00" departDelay="0.00" arrival="53.00" arrivalLane="-23825858#0_0" arrivalPos="17.42" arrivalSpeed="23.16" duration="12.00" routeLength="147.20" waitingTime="0.00" waitingCount="0" stopTime="0.00" timeLoss="6.26" rerouteNo="1" devices="tripinfo_41 routing_41" vType="DEFAULT_VEHTYPE" speedFactor="0.96" vaporized=""/>
    <tripinfo id="19" depart="19.00" departLane="1038761526#0_0" departPos="5.10" departSpeed="0.00" departDelay="0.00" arrival="68.00" arrivalLane="1067743360#3_0" arrivalPos="0.20" arrivalSpeed="18.27" duration="49.00" routeLength="505.02" waitingTime="5.00" waitingCount="1" stopTime="0.00" timeLoss="30.85" rerouteNo="1" devices="tripinfo_19 routing_19" vType="DEFAULT_VEHTYPE" speedFactor="1.16" vaporized=""/>
    <tripinfo id="60" depart="60.00" departLane="1106630540#2_0" departPos="5.10" departSpeed="0.00" departDelay="0.00" arrival="77.00" arrivalLane="-24071819#0_0" arrivalPos="0.20" arrivalSpeed="17.56" duration="17.00" routeLength="161.06" waitingTime="0.00" waitingCount="0" stopTime="0.00" timeLoss="9.72" rerouteNo="1" devices="tripinfo_60 routing_60" vType="DEFAULT_VEHTYPE" speedFactor="1.08" vaporized=""/>
    <tripinfo id="31" depart="31.00" departLane="1038761526#1_0" departPos="0.20" departSpeed="0.00" departDelay="0.00" arrival="83.00" arrivalLane="-134319745#1_0" arrivalPos="54.20" arrivalSpeed="23.40" duration="52.00" routeLength="515.94" waitingTime="7.00" waitingCount="2" stopTime="0.00" timeLoss="32.57" rerouteNo="1" devices="tripinfo_31 routing_31" vType="DEFAULT_VEHTYPE" speedFactor="1.15" vaporized=""/>
    <tripinfo id="8" depart="8.00" departLane="1033716708#0_0" departPos="0.20" departSpeed="0.00" departDelay="0.00" arrival="91.00" arrivalLane="319345472#0_0" arrivalPos="43.93" arrivalSpeed="14.14" duration="83.00" routeLength="519.34" waitingTime="27.00" waitingCount="1" stopTime="0.00" timeLoss="57.97" rerouteNo="1" devices="tripinfo_8 routing_8" vType="DEFAULT_VEHTYPE" speedFactor="0.94" vaporized=""/>
    <tripinfo id="18" depart="18.00" departLane="435724011#1_0" departPos="0.20" departSpeed="0.00" departDelay="0.00" arrival="94.00" arrivalLane="-236157125#4_2" arrivalPos="0.20" arrivalSpeed="11.78" duration="76.00" routeLength="155.98" waitingTime="53.00" waitingCount="3" stopTime="0.00" timeLoss="61.40" rerouteNo="1" devices="tripinfo_18 routing_18" vType="DEFAULT_VEHTYPE" speedFactor="0.94" vaporized=""/>
    <tripinfo id="17" depart="17.00" departLane="59410419#1_0" departPos="5.10" departSpeed="0.00" departDelay="0.00" arrival="99.00" arrivalLane="316764838#0_1" arrivalPos="0.20" arrivalSpeed="7.99" duration="82.00" routeLength="378.70" waitingTime="37.00" waitingCount="1" stopTime="0.00" timeLoss="64.60" rerouteNo="1" devices="tripinfo_17 routing_17" vType="DEFAULT_VEHTYPE" speedFactor="0.94" vaporized=""/>
    <tripinfo id="117" depart="117.00" departLane="59673547#1_0" departPos="0.20" departSpeed="0.00" departDelay="0.00" arrival="118.00" arrivalLane="59673547#1_0" arrivalPos="0.20" arrivalSpeed="2.41" duration="1.00" routeLength="0.00" waitingTime="0.00" waitingCount="0" stopTime="0.00" timeLoss="0.82" rerouteNo="1" devices="tripinfo_117 routing_117" vType="DEFAULT_VEHTYPE" speedFactor="1.00" vaporized=""/>
    <tripinfo id="113" depart="113.00" departLane="-24090845#7_0" departPos="0.20" departSpeed="0.00" departDelay="0.00" arrival="143.00" arrivalLane="24090845#3_0" arrivalPos="42.57" arrivalSpeed="20.71" duration="30.00" routeLength="299.81" waitingTime="0.00" waitingCount="0" stopTime="0.00" timeLoss="15.26" rerouteNo="1" devices="tripinfo_113 routing_113" vType="DEFAULT_VEHTYPE" speedFactor="1.01" vaporized=""/>
    <tripinfo id="26" depart="26.00" departLane="-519223975_0" departPos="0.20" departSpeed="0.00" departDelay="0.00" arrival="155.00" arrivalLane="435724069#1_0" arrivalPos="30.47" arrivalSpeed="11.41" duration="129.00" routeLength="128.41" waitingTime="106.00" waitingCount="2" stopTime="0.00" timeLoss="118.03" rerouteNo="1" devices="tripinfo_26 routing_26" vType="DEFAULT_VEHTYPE" speedFactor="0.92" vaporized=""/>
    <tripinfo id="10" depart="10.00" departLane="4476711#3_0" departPos="0.20" departSpeed="0.00" departDelay="0.00" arrival="156.00" arrivalLane="435724011#0_0" arrivalPos="40.46" arrivalSpeed="20.94" duration="146.00" routeLength="820.73" waitingTime="72.00" waitingCount="3" stopTime="0.00" timeLoss="112.54" rerouteNo="1" devices="tripinfo_10 routing_10" vType="DEFAULT_VEHTYPE" speedFactor="1.09" vaporized=""/>
    <tripinfo id="32" depart="32.00" departLane="1127665632#2_0" departPos="5.10" departSpeed="0.00" departDelay="0.00" arrival="161.00" arrivalLane="1051441727#3_1" arrivalPos="41.60" arrivalSpeed="20.22" duration="129.00" routeLength="1166.62" waitingTime="31.00" waitingCount="2" stopTime="0.00" timeLoss="81.90" rerouteNo="1" devices="tripinfo_32 routing_32" vType="DEFAULT_VEHTYPE" speedFactor="1.01" vaporized=""/>
    <tripinfo id="69" depart="69.00" departLane="23700520#4_0" departPos="5.10" departSpeed="0.00" departDelay="0.00" arrival="161.00" arrivalLane="294582657#5_1" arrivalPos="36.75" arrivalSpeed="19.95" duration="92.00" routeLength="370.96" waitingTime="50.00" waitingCount="1" stopTime="0.00" timeLoss="72.19" rerouteNo="1" devices="tripinfo_69 routing_69" vType="DEFAULT_VEHTYPE" speedFactor="1.02" vaporized=""/>
    <tripinfo id="101" depart="101.00" departLane="313874093#1_0" departPos="5.10" departSpeed="0.00" departDelay="0.00" arrival="161.00" arrivalLane="435724088#0_0" arrivalPos="18.47" arrivalSpeed="15.04" duration="60.00" routeLength="464.43" waitingTime="13.00" waitingCount="1" stopTime="0.00" timeLoss="33.93" rerouteNo="1" devices="tripinfo_101 routing_101" vType="DEFAULT_VEHTYPE" speedFactor="0.96" vaporized=""/>
    <tripinfo id="2" depart="2.00" departLane="435724069#1_0" departPos="5.10" departSpeed="0.00" departDelay="0.00" arrival="164.00" arrivalLane="433784889#3_1" arrivalPos="0.20" arrivalSpeed="26.59" duration="162.00" routeLength="540.14" waitingTime="100.00" waitingCount="3" stopTime="0.00" timeLoss="139.88" rerouteNo="1" devices="tripinfo_2 routing_2" vType="DEFAULT_VEHTYPE" speedFactor="1.01" vaporized=""/>
    <tripinfo id="72" depart="72.00" departLane="-24090845#5_0" departPos="0.38" departSpeed="0.00" departDelay="0.00" arrival="165.00" arrivalLane="433783093#0_0" arrivalPos="0.20" arrivalSpeed="24.95" duration="93.00" routeLength="500.54" waitingTime="41.00" waitingCount="2" stopTime="0.00" timeLoss="70.22" rerouteNo="1" devices="tripinfo_72 routing_72" vType="DEFAULT_VEHTYPE" speedFactor="0.94" vaporized=""/>
    <tripinfo id="6" depart="6.00" departLane="-1287862797_0" departPos="0.20" departSpeed="0.00" departDelay="0.00" arrival="166.00" arrivalLane="-833048839#3_0" arrivalPos="1.19" arrivalSpeed="13.71" duration="160.00" routeLength="430.60" waitingTime="119.00" waitingCount="2" stopTime="0.00" timeLoss="145.04" rerouteNo="1" devices="tripinfo_6 routing_6" vType="DEFAULT_VEHTYPE" speedFactor="1.05" vaporized=""/>
    <tripinfo id="14" depart="14.00" departLane="4476711#4_0" departPos="0.20" departSpeed="0.00" departDelay="0.00" arrival="169.00" arrivalLane="435724069#1_0" arrivalPos="30.47" arrivalSpeed="12.71" duration="155.00" routeLength="506.52" waitingTime="93.00" waitingCount="4" stopTime="0.00" timeLoss="131.02" rerouteNo="1" devices="tripinfo_14 routing_14" vType="DEFAULT_VEHTYPE" speedFactor="0.99" vaporized=""/>
    <tripinfo id="39" depart="39.00" departLane="1449477173#4_0" departPos="5.10" departSpeed="0.00" departDelay="0.00" arrival="177.00" arrivalLane="1035941401#0_2" arrivalPos="53.95" arrivalSpeed="23.12" duration="138.00" routeLength="802.61" waitingTime="70.00" waitingCount="2" stopTime="0.00" timeLoss="104.14" rerouteNo="1" devices="tripinfo_39 routing_39" vType="DEFAULT_VEHTYPE" speedFactor="0.90" vaporized=""/>
    <tripinfo id="175" depart="175.00" departLane="-1033716708#0_0" departPos="0.20" departSpeed="0.00" departDelay="0.00" arrival="191.00" arrivalLane="1067743360#11_1" arrivalPos="10.88" arrivalSpeed="9.09" duration="16.00" routeLength="134.52" waitingTime="0.00" waitingCount="0" stopTime="0.00" timeLoss="8.71" rerouteNo="1" devices="tripinfo_175 routing_175" vType="DEFAULT_VEHTYPE" speedFactor="0.92" vaporized=""/>
    <tripinfo id="163" depart="163.00" departLane="1049318472#1_0" departPos="0.64" departSpeed="0.00" departDelay="0.00" arrival="193.00" arrivalLane="435724035#0_1" arrivalPos="0.20" arrivalSpeed="8.80" duration="30.00" routeLength="273.12" waitingTime="1.00" waitingCount="1" stopTime="0.00" timeLoss="20.40" rerouteNo="1" devices="tripinfo_163 routing_163" vType="DEFAULT_VEHTYPE" speedFactor="1.13" vaporized=""/>
    <tripinfo id="1" depart="1.00" departLane="1051441727#3_1" departPos="5.10" departSpeed="0.00" departDelay="0.00" arrival="195.00" arrivalLane="1038761526#1_1" arrivalPos="0.20" arrivalSpeed="23.25" duration="194.00" routeLength="678.16" waitingTime="118.00" waitingCount="4" stopTime="0.00" timeLoss="165.39" rerouteNo="1" devices="tripinfo_1 routing_1" vType="DEFAULT_VEHTYPE" speedFactor="0.94" vaporized=""/>
    <tripinfo id="64" depart="64.00" departLane="435724093#0_0" departPos="0.20" departSpeed="0.00" departDelay="0.00" arrival="197.00" arrivalLane="-433784890#0_0" arrivalPos="17.79" arrivalSpeed="9.72" duration="133.00" routeLength="277.82" waitingTime="95.00" waitingCount="1" stopTime="0.00" timeLoss="118.13" rerouteNo="1" devices="tripinfo_64 routing_64" vType="DEFAULT_VEHTYPE" speedFactor="0.94" vaporized=""/>
    <tripinfo id="106" depart="106.00" departLane="319345471#1_0" departPos="5.10" departSpeed="0.00" departDelay="0.00" arrival="198.00" arrivalLane="433784889#2_0" arrivalPos="24.28" arrivalSpeed="16.32" duration="92.00" routeLength="504.33" waitingTime="35.00" waitingCount="3" stopTime="0.00" timeLoss="71.18" rerouteNo="1" devices="tripinfo_106 routing_106" vType="DEFAULT_VEHTYPE" speedFactor="1.01" vaporized=""/>
    <tripinfo id="33" depart="33.00" departLane="-973275640#0_0" departPos="5.10" departSpeed="0.00" departDelay="0.00" arrival="201.00" arrivalLane="833035173#2_1" arrivalPos="8.00" arrivalSpeed="21.20" duration="168.00" routeLength="964.37" waitingTime="56.00" waitingCount="3" stopTime="0.00" timeLoss="128.76" rerouteNo="1" devices="tripinfo_33 routing_33" vType="DEFAULT_VEHTYPE" speedFactor="1.17" vaporized=""/>
    <tripinfo id="125" depart="125.00" departLane="-316762111#1_0" departPos="5.10" departSpeed="0.00" departDelay="0.00" arrival="202.00" arrivalLane="316762110#4_0" arrivalPos="26.58" arrivalSpeed="20.92" duration="77.00" routeLength="268.02" waitingTime="47.00" waitingCount="1" stopTime="0.00" timeLoss="66.87" rerouteNo="1" devices="tripinfo_125 routing_125" vType="DEFAULT_VEHTYPE" speedFactor="1.15" vaporized=""/>
    <tripinfo id="15" depart="15.00" departLane="134319745#4_0" departPos="0.20" departSpeed="0.00" departDelay="0.00" arrival="203.00" arrivalLane="316762110#3_0" arrivalPos="27.81" arrivalSpeed="18.53" duration="188.00" routeLength="746.12" waitingTime="101.00" waitingCount="3" stopTime="0.00" timeLoss="153.17" rerouteNo="1" devices="tripinfo_15 routing_15" vType="DEFAULT_VEHTYPE" speedFactor="0.93" vaporized=""/>
    <tripinfo id="24" depart="24.00" departLane="1051441726#4_0" departPos="0.20" departSpeed="0.00" departDelay="0.00" arrival="204.00" arrivalLane="805924007#0_0" arrivalPos="55.32" arrivalSpeed="18.61" duration="180.00" routeLength="912.47" waitingTime="85.00" waitingCount="4" stopTime="0.00" timeLoss="131.85" rerouteNo="1" devices="tripinfo_24 routing_24" vType="DEFAULT_VEHTYPE" speedFactor="0.83" vaporized=""/>
    <tripinfo id="9" depart="9.00" departLane="4476711#6_0" departPos="5.10" departSpeed="0.00" departDelay="0.00" arrival="207.00" arrivalLane="-1106630540#1_0" arrivalPos="2.20" arrivalSpeed="18.73" duration="198.00" routeLength="567.43" waitingTime="127.00" waitingCount="4" stopTime="0.00" timeLoss="169.11" rerouteNo="1" devices="tripinfo_9 routing_9" vType="DEFAULT_VEHTYPE" speedFactor="0.86" vaporized=""/>
    <tripinfo id="165" depart="165.00" departLane="312901458#1_0" departPos="4.96" departSpeed="0.00" departDelay="0.00" arrival="207.00" arrivalLane="435724044#0_2" arrivalPos="0.20" arrivalSpeed="25.15" duration="42.00" routeLength="428.99" waitingTime="2.00" waitingCount="1" stopTime="0.00" timeLoss="22.24" rerouteNo="1" devices="tripinfo_165 routing_165" vType="DEFAULT_VEHTYPE" speedFactor="0.91" vaporized=""/>
    <tripinfo id="3" depart="3.00" departLane="615645277#0_0" departPos="0.83" departSpeed="0.00" departDelay="0.00" arrival="208.00" arrivalLane="-24102433#4_0" arrivalPos="0.20" arrivalSpeed="5.59" duration="205.00" routeLength="952.56" waitingTime="114.00" waitingCount="4" stopTime="0.00" timeLoss="166.19" rerouteNo="1" devices="tripinfo_3 routing_3" vType="DEFAULT_VEHTYPE" speedFactor="1.08" vaporized=""/>
    <tripinfo id="68" depart="68.00" departLane="-833048839#0_0" departPos="5.10" departSpeed="0.00" departDelay="0.00" arrival="208.00" arrivalLane="1137122252#1_0" arrivalPos="0.20" arrivalSpeed="8.63" duration="140.00" routeLength="446.75" waitingTime="87.00" waitingCount="2" stopTime="0.00" timeLoss="122.23" rerouteNo="1" devices="tripinfo_68 routing_68" vType="DEFAULT_VEHTYPE" speedFactor="1.04" vaporized=""/>
    <tripinfo id="70" depart="70.00" departLane="1191328879#3_0" departPos="5.10" departSpeed="0.00" departDelay="0.00" arrival="210.00" arrivalLane="319345471#1_0" arrivalPos="47.44" arrivalSpeed="23.30" duration="140.00" routeLength="544.80" waitingTime="78.00" waitingCount="2" stopTime="0.00" timeLoss="116.85" rerouteNo="1" devices="tripinfo_70 routing_70" vType="DEFAULT_VEHTYPE" speedFactor="1.02" vaporized=""/>
    <tripinfo id="56" depart="56.00" departLane="435724109#2_0" departPos="0.20" departSpeed="0.00" departDelay="0.00" arrival="212.00" arrivalLane="294839950#4_1" arrivalPos="0.20" arrivalSpeed="23.14" duration="156.00" routeLength="562.38" waitingTime="96.00" waitingCount="2" stopTime="0.00" timeLoss="129.28" rerouteNo="1" devices="tripinfo_56 routing_56" vType="DEFAULT_VEHTYPE" speedFactor="0.90" vaporized=""/>
    <tripinfo id="112" depart="112.00" departLane="1127665632#2_0" departPos="5.10" departSpeed="0.00" departDelay="0.00" arrival="213.00" arrivalLane="435724090#0_0" arrivalPos="18.34" arrivalSpeed="10.50" duration="101.00" routeLength="346.06" waitingTime="52.00" waitingCount="2" stopTime="0.00" timeLoss="87.62" rerouteNo="1" devices="tripinfo_112 routing_112" vType="DEFAULT_VEHTYPE" speedFactor="1.10" vaporized=""/>
    <tripinfo id="85" depart="85.00" departLane="236157091#1_0" departPos="5.10" departSpeed="0.00" departDelay="0.00" arrival="214.00" arrivalLane="1051441730#0_1" arrivalPos="27.30" arrivalSpeed="23.70" duration="129.00" routeLength="671.98" waitingTime="62.00" waitingCount="2" stopTime="0.00" timeLoss="85.93" rerouteNo="1" devices="tripinfo_85 routing_85" vType="DEFAULT_VEHTYPE" speedFactor="0.98" vaporized=""/>
    <tripinfo id="34" depart="34.00" departLane="59670543#1_0" departPos="5.10" departSpeed="0.00" departDelay="0.00" arrival="226.00" arrivalLane="1190700428#0_0" arrivalPos="0.20" arrivalSpeed="5.93" duration="192.00" routeLength="1350.95" waitingTime="64.00" waitingCount="4" stopTime="0.00" timeLoss="135.46" rerouteNo="1" devices="tripinfo_34 routing_34" vType="DEFAULT_VEHTYPE" speedFactor="0.99" vaporized=""/>
    <tripinfo id="108" depart="108.00" departLane="319345471#0_0" departPos="0.10" departSpeed="0.00" departDelay="0.00" arrival="227.00" arrivalLane="381820998#0_2" arrivalPos="0.20" arrivalSpeed="7.38" duration="119.00" routeLength="577.06" waitingTime="41.00" waitingCount="4" stopTime="0.00" timeLoss="97.34" rerouteNo="1" devices="tripinfo_108 routing_108" vType="DEFAULT_VEHTYPE" speedFactor="1.06" vaporized=""/>
    <tripinfo id="91" depart="91.00" departLane="5263032#2_0" departPos="5.10" departSpeed="0.00" departDelay="0.00" arrival="243.00" arrivalLane="-519223973#1_1" arrivalPos="0.20" arrivalSpeed="2.48" duration="152.00" routeLength="565.74" waitingTime="83.00" waitingCount="3" stopTime="0.00" timeLoss="125.57" rerouteNo="1" devices="tripinfo_91 routing_91" vType="DEFAULT_VEHTYPE" speedFactor="0.89" vaporized=""/>
    <tripinfo id="16" depart="16.00" departLane="4630404#4_0" departPos="0.20" departSpeed="0.00" departDelay="0.00" arrival="248.00" arrivalLane="381820996#3_3" arrivalPos="0.20" arrivalSpeed="3.84" duration="232.00" routeLength="648.61" waitingTime="136.00" waitingCount="7" stopTime="0.00" timeLoss="201.41" rerouteNo="1" devices="tripinfo_16 routing_16" vType="DEFAULT_VEHTYPE" speedFactor="0.88" vaporized=""/>
    <tripinfo id="141" depart="141.00" departLane="145846251#1_0" departPos="5.10" departSpeed="0.00" departDelay="0.00" arrival="248.00" arrivalLane="381820998#1_1" arrivalPos="0.20" arrivalSpeed="3.50" duration="107.00" routeLength="185.98" waitingTime="74.00" waitingCount="2" stopTime="0.00" timeLoss="101.17" rerouteNo="1" devices="tripinfo_141 routing_141" vType="DEFAULT_VEHTYPE" speedFactor="1.16" vaporized=""/>
    <tripinfo id="43" depart="43.00" departLane="445290295#0_0" departPos="0.20" departSpeed="0.00" departDelay="0.00" arrival="255.00" arrivalLane="236157423#0_0" arrivalPos="65.39" arrivalSpeed="13.65" duration="212.00" routeLength="914.83" waitingTime="110.00" waitingCount="5" stopTime="0.00" timeLoss="168.56" rerouteNo="1" devices="tripinfo_43 routing_43" vType="DEFAULT_VEHTYPE" speedFactor="1.04" vaporized=""/>
    <tripinfo id="5" depart="5.00" departLane="1028907899#1_0" departPos="0.20" departSpeed="0.00" departDelay="0.00" arrival="257.00" arrivalLane="292339723#1_0" arrivalPos="20.67" arrivalSpeed="11.20" duration="252.00" routeLength="716.45" waitingTime="171.00" waitingCount="5" stopTime="0.00" timeLoss="217.22" rerouteNo="1" devices="tripinfo_5 routing_5" vType="DEFAULT_VEHTYPE" speedFactor="0.83" vaporized=""/>
    <tripinfo id="211" depart="211.00" departLane="145857414#1_0" departPos="5.10" departSpeed="0.00" departDelay="0.00" arrival="258.00" arrivalLane="315089479#1_0" arrivalPos="10.40" arrivalSpeed="9.44" duration="47.00" routeLength="150.20" waitingTime="21.00" waitingCount="2" stopTime="0.00" timeLoss="41.68" rerouteNo="1" devices="tripinfo_211 routing_211" vType="DEFAULT_VEHTYPE" speedFactor="1.04" vaporized=""/>
    <tripinfo id="49" depart="49.00" departLane="24071819#1_0" departPos="5.10" departSpeed="0.00" departDelay="0.00" arrival="259.00" arrivalLane="841064474#2_3" arrivalPos="0.30" arrivalSpeed="18.08" duration="210.00" routeLength="518.58" waitingTime="142.00" waitingCount="5" stopTime="0.00" timeLoss="182.74" rerouteNo="1" devices="tripinfo_49 routing_49" vType="DEFAULT_VEHTYPE" speedFactor="0.85" vaporized=""/>
    <tripinfo id="54" depart="54.00" departLane="337681340#1_0" departPos="5.10" departSpeed="0.00" departDelay="0.00" arrival="260.00" arrivalLane="-435724099#1_0" arrivalPos="0.20" arrivalSpeed="9.35" duration="206.00" routeLength="781.29" waitingTime="122.00" waitingCount="3" stopTime="0.00" timeLoss="174.09" rerouteNo="1" devices="tripinfo_54 routing_54" vType="DEFAULT_VEHTYPE" speedFactor="1.00" vaporized=""/>
    <tripinfo id="58" depart="58.00" departLane="-1194188298#1_0" departPos="5.10" departSpeed="0.00" departDelay="0.00" arrival="260.00" arrivalLane="793372646#2_0" arrivalPos="0.20" arrivalSpeed="12.88" duration="202.00" routeLength="544.32" waitingTime="127.00" waitingCount="6" stopTime="0.00" timeLoss="179.40" rerouteNo="1" devices="tripinfo_58 routing_58" vType="DEFAULT_VEHTYPE" speedFactor="1.02" vaporized=""/>
    <tripinfo id="96" depart="96.00" departLane="24075632#0_0" departPos="0.20" departSpeed="0.00" departDelay="0.00" arrival="260.00" arrivalLane="236157423#1_1" arrivalPos="43.79" arrivalSpeed="12.31" duration="164.00" routeLength="958.85" waitingTime="68.00" waitingCount="3" stopTime="0.00" timeLoss="113.00" rerouteNo="1" devices="tripinfo_96 routing_96" vType="DEFAULT_VEHTYPE" speedFactor="1.01" vaporized=""/>
    <tripinfo id="47" depart="47.00" departLane="1051441726#4_0" departPos="0.20" departSpeed="0.00" departDelay="0.00" arrival="261.00" arrivalLane="433783096#1_2" arrivalPos="0.20" arrivalSpeed="21.20" duration="214.00" routeLength="675.10" waitingTime="151.00" waitingCount="3" stopTime="0.00" timeLoss="183.21" rerouteNo="1" devices="tripinfo_47 routing_47" vType="DEFAULT_VEHTYPE" speedFactor="0.90" vaporized=""/>
    <tripinfo id="63" depart="63.00" departLane="-24090845#4_0" departPos="0.20" departSpeed="0.00" departDelay="0.00" arrival="261.00" arrivalLane="435724099#0_0" arrivalPos="13.16" arrivalSpeed="16.50" duration="198.00" routeLength="669.54" waitingTime="131.00" waitingCount="3" stopTime="0.00" timeLoss="167.53" rerouteNo="1" devices="tripinfo_63 routing_63" vType="DEFAULT_VEHTYPE" speedFactor="0.99" vaporized=""/>
    <tripinfo id="231" depart="231.00" departLane="433783097#2_0" departPos="5.10" departSpeed="0.00" departDelay="0.00" arrival="261.00" arrivalLane="435724113#0_0" arrivalPos="47.14" arrivalSpeed="19.11" duration="30.00" routeLength="213.75" waitingTime="6.00" waitingCount="1" stopTime="0.00" timeLoss="23.08" rerouteNo="1" devices="tripinfo_231 routing_231" vType="DEFAULT_VEHTYPE" speedFactor="1.14" vaporized=""/>
    <tripinfo id="126" depart="126.00" departLane="435724038_0" departPos="5.10" departSpeed="0.00" departDelay="0.00" arrival="263.00" arrivalLane="-934416474#0_0" arrivalPos="49.06" arrivalSpeed="22.70" duration="137.00" routeLength="646.40" waitingTime="57.00" waitingCount="4" stopTime="0.00" timeLoss="108.98" rerouteNo="1" devices="tripinfo_126 routing_126" vType="DEFAULT_VEHTYPE" speedFactor="1.03" vaporized=""/>
    <tripinfo id="129" depart="129.00" departLane="-1049318473#1_0" departPos="5.10" departSpeed="0.00" departDelay="0.00" arrival="263.00" arrivalLane="435724109#1_1" arrivalPos="59.81" arrivalSpeed="18.03" duration="134.00" routeLength="472.20" waitingTime="72.00" waitingCount="3" stopTime="0.00" timeLoss="111.74" rerouteNo="1" devices="tripinfo_129 routing_129" vType="DEFAULT_VEHTYPE" speedFactor="1.01" vaporized=""/>
    <tripinfo id="21" depart="21.00" departLane="-294712587_0" departPos="0.20" departSpeed="0.00" departDelay="0.00" arrival="264.00" arrivalLane="1051441730#0_0" arrivalPos="27.30" arrivalSpeed="18.81" duration="243.00" routeLength="1251.15" waitingTime="130.00" waitingCount="4" stopTime="0.00" timeLoss="194.30" rerouteNo="1" devices="tripinfo_21 routing_21" vType="DEFAULT_VEHTYPE" speedFactor="1.01" vaporized=""/>
    <tripinfo id="74" depart="74.00" departLane="1049318468#1_0" departPos="5.10" departSpeed="0.00" departDelay="0.00" arrival="264.00" arrivalLane="433784884#9_0" arrivalPos="44.91" arrivalSpeed="26.09" duration="190.00" routeLength="824.35" waitingTime="108.00" waitingCount="3" stopTime="0.00" timeLoss="158.06" rerouteNo="1" devices="tripinfo_74 routing_74" vType="DEFAULT_VEHTYPE" speedFactor="0.96" vaporized=""/>
    <tripinfo id="53" depart="53.00" departLane="1067743360#6_0" departPos="0.24" departSpeed="0.00" departDelay="0.00" arrival="267.00" arrivalLane="433783095#2_1" arrivalPos="0.20" arrivalSpeed="5.71" duration="214.00" routeLength="581.43" waitingTime="134.00" waitingCount="3" stopTime="0.00" timeLoss="191.03" rerouteNo="1" devices="tripinfo_53 routing_53" vType="DEFAULT_VEHTYPE" speedFactor="1.10" vaporized=""/>
    <tripinfo id="111" depart="111.00" departLane="433784884#7_0" departPos="0.20" departSpeed="0.00" departDelay="0.00" arrival="268.00" arrivalLane="1106630540#2_0" arrivalPos="74.96" arrivalSpeed="18.09" duration="157.00" routeLength="412.38" waitingTime="97.00" waitingCount="5" stopTime="0.00" timeLoss="136.35" rerouteNo="1" devices="tripinfo_111 routing_111" vType="DEFAULT_VEHTYPE" speedFactor="0.87" vaporized=""/>
    <tripinfo id="7" depart="7.00" departLane="433783097#2_0" departPos="5.10" departSpeed="0.00" departDelay="0.00" arrival="270.00" arrivalLane="315828468#1_1" arrivalPos="7.35" arrivalSpeed="11.22" duration="263.00" routeLength="1025.26" waitingTime="145.00" waitingCount="5" stopTime="0.00" timeLoss="218.57" rerouteNo="1" devices="tripinfo_7 routing_7" vType="DEFAULT_VEHTYPE" speedFactor="0.89" vaporized=""/>
    <tripinfo id="84" depart="84.00" departLane="-683816243#1_0" departPos="0.20" departSpeed="0.00" departDelay="0.00" arrival="271.00" arrivalLane="24075632#2_0" arrivalPos="36.02" arrivalSpeed="15.24" duration="187.00" routeLength="1008.87" waitingTime="91.00" waitingCount="3" stopTime="0.00" timeLoss="148.03" rerouteNo="1" devices="tripinfo_84 routing_84" vType="DEFAULT_VEHTYPE" speedFactor="1.15" vaporized=""/>
    <tripinfo id="95" depart="95.00" departLane="1051441726#3_0" departPos="5.10" departSpeed="0.00" departDelay="0.00" arrival="271.00" arrivalLane="435724119#1_2" arrivalPos="0.20" arrivalSpeed="8.04" duration="176.00" routeLength="856.25" waitingTime="81.00" waitingCount="5" stopTime="0.00" timeLoss="143.98" rerouteNo="1" devices="tripinfo_95 routing_95" vType="DEFAULT_VEHTYPE" speedFactor="1.06" vaporized=""/>
    <tripinfo id="73" depart="73.00" departLane="59407132#3_0" departPos="5.10" departSpeed="0.00" departDelay="0.00" arrival="272.00" arrivalLane="-24090845#6_0" arrivalPos="18.89" arrivalSpeed="20.42" duration="199.00" routeLength="360.84" waitingTime="151.00" waitingCount="4" stopTime="0.00" timeLoss="181.09" rerouteNo="1" devices="tripinfo_73 routing_73" vType="DEFAULT_VEHTYPE" speedFactor="1.06" vaporized=""/>
    <tripinfo id="98" depart="98.00" departLane="316762110#0_0" departPos="0.20" departSpeed="0.00" departDelay="0.00" arrival="274.00" arrivalLane="435724041#2_0" arrivalPos="23.41" arrivalSpeed="13.94" duration="176.00" routeLength="853.75" waitingTime="90.00" waitingCount="3" stopTime="0.00" timeLoss="146.78" rerouteNo="1" devices="tripinfo_98 routing_98" vType="DEFAULT_VEHTYPE" speedFactor="1.12" vaporized=""/>
    <tripinfo id="214" depart="214.00" departLane="1349641698_0" departPos="5.10" departSpeed="0.00" departDelay="0.00" arrival="274.00" arrivalLane="-1106630540#1_0" arrivalPos="2.20" arrivalSpeed="17.24" duration="60.00" routeLength="195.00" waitingTime="31.00" waitingCount="2" stopTime="0.00" timeLoss="47.13" rerouteNo="1" devices="tripinfo_214 routing_214" vType="DEFAULT_VEHTYPE" speedFactor="0.83" vaporized=""/>
    <tripinfo id="196" depart="196.00" departLane="24075632#1_0" departPos="5.10" departSpeed="0.00" departDelay="0.00" arrival="277.00" arrivalLane="4476711#5_0" arrivalPos="14.19" arrivalSpeed="9.83" duration="81.00" routeLength="395.81" waitingTime="27.00" waitingCount="2" stopTime="0.00" timeLoss="59.40" rerouteNo="1" devices="tripinfo_196 routing_196" vType="DEFAULT_VEHTYPE" speedFactor="1.03" vaporized=""/>
    <tripinfo id="71" depart="71.00" departLane="1049318466#0_0" departPos="5.10" departSpeed="0.00" departDelay="0.00" arrival="278.00" arrivalLane="1035941401#1_2" arrivalPos="0.20" arrivalSpeed="22.01" duration="207.00" routeLength="660.82" waitingTime="136.00" waitingCount="3" stopTime="0.00" timeLoss="181.51" rerouteNo="1" devices="tripinfo_71 routing_71" vType="DEFAULT_VEHTYPE" speedFactor="0.97" vaporized=""/>
    <tripinfo id="139" depart="139.00" departLane="615900433#5_1" departPos="0.71" departSpeed="0.00" departDelay="0.00" arrival="280.00" arrivalLane="1015181072_1" arrivalPos="0.30" arrivalSpeed="25.89" duration="141.00" routeLength="780.31" waitingTime="81.00" waitingCount="3" stopTime="0.00" timeLoss="109.32" rerouteNo="1" devices="tripinfo_139 routing_139" vType="DEFAULT_VEHTYPE" speedFactor="0.95" vaporized=""/>
    <tripinfo id="115" depart="116.00" departLane="-24090845#7_0" departPos="0.20" departSpeed="0.00" departDelay="1.00" arrival="281.00" arrivalLane="1028907899#1_1" arrivalPos="0.20" arrivalSpeed="10.19" duration="165.00" routeLength="659.49" waitingTime="88.00" waitingCount="3" stopTime="0.00" timeLoss="134.62" rerouteNo="1" devices="tripinfo_115 routing_115" vType="DEFAULT_VEHTYPE" speedFactor="0.92" vaporized=""/>
    <tripinfo id="185" depart="185.00" departLane="1049318469#2_0" departPos="0.20" departSpeed="0.00" departDelay="0.00" arrival="281.00" arrivalLane="24102433#2_0" arrivalPos="0.25" arrivalSpeed="19.11" duration="96.00" routeLength="394.12" waitingTime="50.00" waitingCount="1" stopTime="0.00" timeLoss="77.42" rerouteNo="1" devices="tripinfo_185 routing_185" vType="DEFAULT_VEHTYPE" speedFactor="0.92" vaporized=""/>
    <tripinfo id="88" depart="88.00" departLane="315828468#1_0" departPos="5.10" departSpeed="0.00" departDelay="0.00" arrival="290.00" arrivalLane="-23825858#3_0" arrivalPos="14.78" arrivalSpeed="8.20" duration="202.00" routeLength="410.58" waitingTime="158.00" waitingCount="2" stopTime="0.00" timeLoss="183.16" rerouteNo="1" devices="tripinfo_88 routing_88" vType="DEFAULT_VEHTYPE" speedFactor="1.01" vaporized=""/>