<?xml version="1.0" encoding="UTF-8"?>

<!-- generated on 2026-03-24T23:34:56.082154+00:00 by Eclipse SUMO GUI 1.26.0
<sumoConfiguration xmlns:xsi="http://www.w3.org/2001/XMLSchema-instance" xsi:noNamespaceSchemaLocation="http://sumo.dlr.de/xsd/sumoConfiguration.xsd">

    <input>
        <net-file value="simulation/configs/../network/chicago.net.xml"/>
        <route-files value="simulation/configs/../routes/chicago_incident.rou.xml"/>
    </input>

    <output>
        <tripinfo-output value="simulation/configs/../../results/tripinfo_incident_ai.xml"/>
        <edgedata-output value="simulation/configs/../../results/edge_data_incident_ai.xml"/>
    </output>

    <time>
        <begin value="0"/>
        <end value="3600"/>
    </time>

    <traci_server>
        <remote-port value="59547"/>
    </traci_server>

</sumoConfiguration>
-->

<tripinfos xmlns:xsi="http://www.w3.org/2001/XMLSchema-instance" xsi:noNamespaceSchemaLocation="http://sumo.dlr.de/xsd/tripinfo_file.xsd">
    <tripinfo id="19" depart="29.00" departLane="1038761526#0_0" departPos="5.10" departSpeed="0.00" departDelay="0.50" arrival="70.00" arrivalLane="1067743360#3_0" arrivalPos="0.20" arrivalSpeed="18.04" duration="41.00" routeLength="505.02" waitingTime="0.00" waitingCount="0" stopTime="0.00" timeLoss="23.49" rerouteNo="1" devices="tripinfo_19 routing_19" vType="DEFAULT_VEHTYPE" speedFactor="1.16" vaporized=""/>
    <tripinfo id="31" depart="47.00" departLane="1038761526#1_0" departPos="0.20" departSpeed="0.00" departDelay="0.50" arrival="84.00" arrivalLane="-134319745#1_0" arrivalPos="54.20" arrivalSpeed="30.32" duration="37.00" routeLength="515.94" waitingTime="3.00" waitingCount="1" stopTime="0.00" timeLoss="16.81" rerouteNo="1" devices="tripinfo_31 routing_31" vType="DEFAULT_VEHTYPE" speedFactor="1.15" vaporized=""/>
    <tripinfo id="18" depart="27.00" departLane="435724011#1_0" departPos="0.20" departSpeed="0.00" departDelay="0.00" arrival="92.00" arrivalLane="-236157125#4_2" arrivalPos="0.20" arrivalSpeed="11.38" duration="65.00" routeLength="155.98" waitingTime="41.00" waitingCount="3" stopTime="0.00" timeLoss="51.22" rerouteNo="1" devices="tripinfo_18 routing_18" vType="DEFAULT_VEHTYPE" speedFactor="0.94" vaporized=""/>
    <tripinfo id="17" depart="26.00" departLane="59410419#1_0" departPos="5.10" departSpeed="0.00" departDelay="0.50" arrival="100.00" arrivalLane="316764838#0_1" arrivalPos="0.20" arrivalSpeed="7.74" duration="74.00" routeLength="378.70" waitingTime="33.00" waitingCount="1" stopTime="0.00" timeLoss="55.20" rerouteNo="1" devices="tripinfo_17 routing_17" vType="DEFAULT_VEHTYPE" speedFactor="0.94" vaporized=""/>
    <tripinfo id="60" depart="90.00" departLane="1106630540#2_0" departPos="5.10" departSpeed="0.00" departDelay="0.00" arrival="107.00" arrivalLane="-24071819#0_0" arrivalPos="0.20" arrivalSpeed="18.56" duration="17.00" routeLength="161.06" waitingTime="0.00" waitingCount="0" stopTime="0.00" timeLoss="9.66" rerouteNo="1" devices="tripinfo_60 routing_60" vType="DEFAULT_VEHTYPE" speedFactor="1.08" vaporized=""/>
    <tripinfo id="8" depart="12.00" departLane="1033716708#0_0" departPos="0.20" departSpeed="0.00" departDelay="0.00" arrival="108.00" arrivalLane="319345472#0_0" arrivalPos="43.93" arrivalSpeed="16.01" duration="96.00" routeLength="519.34" waitingTime="34.00" waitingCount="2" stopTime="0.00" timeLoss="70.76" rerouteNo="1" devices="tripinfo_8 routing_8" vType="DEFAULT_VEHTYPE" speedFactor="0.94" vaporized=""/>
    <tripinfo id="26" depart="39.00" departLane="-519223975_0" departPos="0.20" departSpeed="0.00" departDelay="0.00" arrival="143.00" arrivalLane="435724069#1_0" arrivalPos="30.47" arrivalSpeed="10.96" duration="104.00" routeLength="128.41" waitingTime="80.00" waitingCount="2" stopTime="0.00" timeLoss="93.13" rerouteNo="1" devices="tripinfo_26 routing_26" vType="DEFAULT_VEHTYPE" speedFactor="0.92" vaporized=""/>
    <tripinfo id="10" depart="15.00" departLane="4476711#3_0" departPos="0.20" departSpeed="0.00" departDelay="0.00" arrival="144.00" arrivalLane="435724011#0_0" arrivalPos="40.46" arrivalSpeed="18.40" duration="129.00" routeLength="820.73" waitingTime="61.00" waitingCount="2" stopTime="0.00" timeLoss="95.72" rerouteNo="1" devices="tripinfo_10 routing_10" vType="DEFAULT_VEHTYPE" speedFactor="1.09" vaporized=""/>
    <tripinfo id="41" depart="62.00" departLane="-292339723#2_0" departPos="5.10" departSpeed="0.00" departDelay="0.50" arrival="146.00" arrivalLane="-23825858#0_0" arrivalPos="17.42" arrivalSpeed="18.73" duration="84.00" routeLength="147.20" waitingTime="62.00" waitingCount="1" stopTime="0.00" timeLoss="78.27" rerouteNo="1" devices="tripinfo_41 routing_41" vType="DEFAULT_VEHTYPE" speedFactor="0.96" vaporized=""/>
    <tripinfo id="69" depart="104.00" departLane="23700520#4_0" departPos="5.10" departSpeed="0.00" departDelay="0.50" arrival="149.00" arrivalLane="294582657#5_1" arrivalPos="36.75" arrivalSpeed="21.85" duration="45.00" routeLength="370.96" waitingTime="4.00" waitingCount="1" stopTime="0.00" timeLoss="23.85" rerouteNo="1" devices="tripinfo_69 routing_69" vType="DEFAULT_VEHTYPE" speedFactor="1.02" vaporized=""/>
    <tripinfo id="32" depart="48.00" departLane="1127665632#2_0" departPos="5.10" departSpeed="0.00" departDelay="0.00" arrival="151.00" arrivalLane="1051441727#3_1" arrivalPos="41.60" arrivalSpeed="21.84" duration="103.00" routeLength="1166.62" waitingTime="3.00" waitingCount="2" stopTime="0.00" timeLoss="55.73" rerouteNo="1" devices="tripinfo_32 routing_32" vType="DEFAULT_VEHTYPE" speedFactor="1.01" vaporized=""/>
    <tripinfo id="2" depart="3.00" departLane="435724069#1_0" departPos="5.10" departSpeed="0.00" departDelay="0.00" arrival="152.00" arrivalLane="433784889#3_1" arrivalPos="0.20" arrivalSpeed="27.72" duration="149.00" routeLength="540.14" waitingTime="87.00" waitingCount="3" stopTime="0.00" timeLoss="126.71" rerouteNo="1" devices="tripinfo_2 routing_2" vType="DEFAULT_VEHTYPE" speedFactor="1.01" vaporized=""/>
    <tripinfo id="6" depart="9.00" departLane="-1287862797_0" departPos="0.20" departSpeed="0.00" departDelay="0.00" arrival="152.00" arrivalLane="-833048839#3_0" arrivalPos="1.19" arrivalSpeed="13.44" duration="143.00" routeLength="430.60" waitingTime="91.00" waitingCount="4" stopTime="0.00" timeLoss="127.89" rerouteNo="1" devices="tripinfo_6 routing_6" vType="DEFAULT_VEHTYPE" speedFactor="1.05" vaporized=""/>
    <tripinfo id="14" depart="21.00" departLane="4476711#4_0" departPos="0.20" departSpeed="0.00" departDelay="0.00" arrival="156.00" arrivalLane="435724069#1_0" arrivalPos="30.47" arrivalSpeed="14.03" duration="135.00" routeLength="506.52" waitingTime="73.00" waitingCount="2" stopTime="0.00" timeLoss="110.99" rerouteNo="1" devices="tripinfo_14 routing_14" vType="DEFAULT_VEHTYPE" speedFactor="0.99" vaporized=""/>
    <tripinfo id="72" depart="108.00" departLane="-24090845#5_0" departPos="0.38" departSpeed="0.00" departDelay="0.00" arrival="161.00" arrivalLane="433783093#0_0" arrivalPos="0.20" arrivalSpeed="24.76" duration="53.00" routeLength="500.54" waitingTime="5.00" waitingCount="1" stopTime="0.00" timeLoss="30.11" rerouteNo="1" devices="tripinfo_72 routing_72" vType="DEFAULT_VEHTYPE" speedFactor="0.94" vaporized=""/>
    <tripinfo id="39" depart="59.00" departLane="1449477173#4_0" departPos="5.10" departSpeed="0.00" departDelay="0.50" arrival="167.00" arrivalLane="1035941401#0_2" arrivalPos="53.95" arrivalSpeed="23.10" duration="108.00" routeLength="802.61" waitingTime="41.00" waitingCount="1" stopTime="0.00" timeLoss="74.14" rerouteNo="1" devices="tripinfo_39 routing_39" vType="DEFAULT_VEHTYPE" speedFactor="0.90" vaporized=""/>
    <tripinfo id="117" depart="176.00" departLane="59673547#1_0" departPos="0.20" departSpeed="0.00" departDelay="0.50" arrival="177.00" arrivalLane="59673547#1_0" arrivalPos="0.20" arrivalSpeed="1.94" duration="1.00" routeLength="0.00" waitingTime="0.00" waitingCount="0" stopTime="0.00" timeLoss="0.86" rerouteNo="1" devices="tripinfo_117 routing_117" vType="DEFAULT_VEHTYPE" speedFactor="1.00" vaporized=""/>
    <tripinfo id="1" depart="2.00" departLane="1051441727#3_1" departPos="5.10" departSpeed="0.00" departDelay="0.50" arrival="183.00" arrivalLane="1038761526#1_1" arrivalPos="0.20" arrivalSpeed="24.94" duration="181.00" routeLength="678.16" waitingTime="105.00" waitingCount="4" stopTime="0.00" timeLoss="151.39" rerouteNo="1" devices="tripinfo_1 routing_1" vType="DEFAULT_VEHTYPE" speedFactor="0.94" vaporized=""/>
    <tripinfo id="64" depart="96.00" departLane="435724093#0_0" departPos="0.20" departSpeed="0.00" departDelay="0.00" arrival="184.00" arrivalLane="-433784890#0_0" arrivalPos="17.79" arrivalSpeed="10.54" duration="88.00" routeLength="277.82" waitingTime="51.00" waitingCount="1" stopTime="0.00" timeLoss="72.80" rerouteNo="1" devices="tripinfo_64 routing_64" vType="DEFAULT_VEHTYPE" speedFactor="0.94" vaporized=""/>
    <tripinfo id="15" depart="23.00" departLane="134319745#4_0" departPos="0.20" departSpeed="0.00" departDelay="0.50" arrival="188.00" arrivalLane="316762110#3_0" arrivalPos="27.81" arrivalSpeed="18.85" duration="165.00" routeLength="746.12" waitingTime="89.00" waitingCount="3" stopTime="0.00" timeLoss="131.05" rerouteNo="1" devices="tripinfo_15 routing_15" vType="DEFAULT_VEHTYPE" speedFactor="0.93" vaporized=""/>
    <tripinfo id="33" depart="50.00" departLane="-973275640#0_0" departPos="5.10" departSpeed="0.00" departDelay="0.50" arrival="189.00" arrivalLane="833035173#2_1" arrivalPos="8.00" arrivalSpeed="22.71" duration="139.00" routeLength="964.37" waitingTime="34.00" waitingCount="3" stopTime="0.00" timeLoss="98.97" rerouteNo="1" devices="tripinfo_33 routing_33" vType="DEFAULT_VEHTYPE" speedFactor="1.17" vaporized=""/>
    <tripinfo id="24" depart="36.00" departLane="1051441726#4_0" departPos="0.20" departSpeed="0.00" departDelay="0.00" arrival="192.00" arrivalLane="805924007#0_0" arrivalPos="55.32" arrivalSpeed="19.96" duration="156.00" routeLength="912.47" waitingTime="63.00" waitingCount="3" stopTime="0.00" timeLoss="108.34" rerouteNo="1" devices="tripinfo_24 routing_24" vType="DEFAULT_VEHTYPE" speedFactor="0.83" vaporized=""/>
    <tripinfo id="68" depart="102.00" departLane="-833048839#0_0" departPos="5.10" departSpeed="0.00" departDelay="0.00" arrival="192.00" arrivalLane="1137122252#1_0" arrivalPos="0.20" arrivalSpeed="9.56" duration="90.00" routeLength="446.75" waitingTime="44.00" waitingCount="2" stopTime="0.00" timeLoss="73.31" rerouteNo="1" devices="tripinfo_68 routing_68" vType="DEFAULT_VEHTYPE" speedFactor="1.04" vaporized=""/>
    <tripinfo id="3" depart="5.00" departLane="615645277#0_0" departPos="0.83" departSpeed="0.00" departDelay="0.50" arrival="194.00" arrivalLane="-24102433#4_0" arrivalPos="0.20" arrivalSpeed="6.44" duration="189.00" routeLength="952.56" waitingTime="100.00" waitingCount="4" stopTime="0.00" timeLoss="150.53" rerouteNo="1" devices="tripinfo_3 routing_3" vType="DEFAULT_VEHTYPE" speedFactor="1.08" vaporized=""/>
    <tripinfo id="70" depart="105.00" departLane="1191328879#3_0" departPos="5.10" departSpeed="0.00" departDelay="0.00" arrival="197.00" arrivalLane="319345471#1_0" arrivalPos="47.44" arrivalSpeed="22.30" duration="92.00" routeLength="544.79" waitingTime="30.00" waitingCount="2" stopTime="0.00" timeLoss="69.04" rerouteNo="1" devices="tripinfo_70 routing_70" vType="DEFAULT_VEHTYPE" speedFactor="1.02" vaporized=""/>
    <tripinfo id="113" depart="170.00" departLane="-24090845#7_0" departPos="0.20" departSpeed="0.00" departDelay="0.50" arrival="199.00" arrivalLane="24090845#3_0" arrivalPos="42.57" arrivalSpeed="21.48" duration="29.00" routeLength="299.81" waitingTime="0.00" waitingCount="0" stopTime="0.00" timeLoss="14.51" rerouteNo="1" devices="tripinfo_113 routing_113" vType="DEFAULT_VEHTYPE" speedFactor="1.01" vaporized=""/>
    <tripinfo id="5" depart="8.00" departLane="1028907899#1_0" departPos="0.20" departSpeed="0.00" departDelay="0.50" arrival="200.00" arrivalLane="292339723#1_0" arrivalPos="20.67" arrivalSpeed="10.61" duration="192.00" routeLength="716.45" waitingTime="113.00" waitingCount="4" stopTime="0.00" timeLoss="156.94" rerouteNo="1" devices="tripinfo_5 routing_5" vType="DEFAULT_VEHTYPE" speedFactor="0.83" vaporized=""/>
    <tripinfo id="9" depart="14.00" departLane="4476711#6_0" departPos="5.10" departSpeed="0.00" departDelay="0.50" arrival="201.00" arrivalLane="-1106630540#1_0" arrivalPos="2.20" arrivalSpeed="18.75" duration="187.00" routeLength="567.43" waitingTime="108.00" waitingCount="4" stopTime="0.00" timeLoss="157.57" rerouteNo="1" devices="tripinfo_9 routing_9" vType="DEFAULT_VEHTYPE" speedFactor="0.86" vaporized=""/>
    <tripinfo id="85" depart="128.00" departLane="236157091#1_0" departPos="5.10" departSpeed="0.00" departDelay="0.50" arrival="202.00" arrivalLane="1051441730#0_1" arrivalPos="27.30" arrivalSpeed="22.68" duration="74.00" routeLength="671.98" waitingTime="12.00" waitingCount="1" stopTime="0.00" timeLoss="31.45" rerouteNo="1" devices="tripinfo_85 routing_85" vType="DEFAULT_VEHTYPE" speedFactor="0.98" vaporized=""/>
    <tripinfo id="49" depart="74.00" departLane="24071819#1_0" departPos="5.10" departSpeed="0.00" departDelay="0.50" arrival="203.00" arrivalLane="841064474#2_3" arrivalPos="0.30" arrivalSpeed="17.16" duration="129.00" routeLength="518.58" waitingTime="71.00" waitingCount="3" stopTime="0.00" timeLoss="101.60" rerouteNo="1" devices="tripinfo_49 routing_49" vType="DEFAULT_VEHTYPE" speedFactor="0.85" vaporized=""/>
    <tripinfo id="4" depart="6.00" departLane="236157091#1_0" departPos="5.10" departSpeed="0.00" departDelay="0.00" arrival="204.00" arrivalLane="-1287862806_0" arrivalPos="0.20" arrivalSpeed="12.90" duration="198.00" routeLength="695.69" waitingTime="112.00" waitingCount="5" stopTime="0.00" timeLoss="166.95" rerouteNo="1" devices="tripinfo_4 routing_4" vType="DEFAULT_VEHTYPE" speedFactor="1.03" vaporized=""/>
    <tripinfo id="125" depart="188.00" departLane="-316762111#1_0" departPos="5.10" departSpeed="0.00" departDelay="0.50" arrival="215.00" arrivalLane="316762110#4_0" arrivalPos="26.58" arrivalSpeed="22.42" duration="27.00" routeLength="268.02" waitingTime="0.00" waitingCount="0" stopTime="0.00" timeLoss="16.69" rerouteNo="1" devices="tripinfo_125 routing_125" vType="DEFAULT_VEHTYPE" speedFactor="1.15" vaporized=""/>
    <tripinfo id="65" depart="102.00" departLane="24091488#0_0" departPos="0.20" departSpeed="0.00" departDelay="4.50" arrival="216.00" arrivalLane="316762110#1_0" arrivalPos="32.23" arrivalSpeed="13.33" duration="114.00" routeLength="699.58" waitingTime="37.00" waitingCount="2" stopTime="0.00" timeLoss="81.29" rerouteNo="1" devices="tripinfo_65 routing_65" vType="DEFAULT_VEHTYPE" speedFactor="0.88" vaporized=""/>
    <tripinfo id="67" depart="101.00" departLane="313874092_0" departPos="5.10" departSpeed="0.00" departDelay="0.50" arrival="216.00" arrivalLane="435724069#1_1" arrivalPos="30.47" arrivalSpeed="11.72" duration="115.00" routeLength="479.14" waitingTime="60.00" waitingCount="2" stopTime="0.00" timeLoss="90.37" rerouteNo="1" devices="tripinfo_67 routing_67" vType="DEFAULT_VEHTYPE" speedFactor="0.91" vaporized=""/>
    <tripinfo id="46" depart="73.00" departLane="-1127665632#0_0" departPos="0.20" departSpeed="0.00" departDelay="4.00" arrival="228.00" arrivalLane="435724044#1_1" arrivalPos="17.37" arrivalSpeed="27.71" duration="155.00" routeLength="740.57" waitingTime="94.00" waitingCount="3" stopTime="0.00" timeLoss="127.70" rerouteNo="1" devices="tripinfo_46 routing_46" vType="DEFAULT_VEHTYPE" speedFactor="1.00" vaporized=""/>
    <tripinfo id="141" depart="212.00" departLane="145846251#1_0" departPos="5.10" departSpeed="0.00" departDelay="0.50" arrival="247.00" arrivalLane="381820998#1_2" arrivalPos="0.20" arrivalSpeed="2.39" duration="35.00" routeLength="185.98" waitingTime="10.00" waitingCount="1" stopTime="0.00" timeLoss="29.25" rerouteNo="1" devices="tripinfo_141 routing_141" vType="DEFAULT_VEHTYPE" speedFactor="1.16" vaporized=""/>
    <tripinfo id="43" depart="65.00" departLane="445290295#0_0" departPos="0.20" departSpeed="0.00" departDelay="0.50" arrival="255.00" arrivalLane="236157423#0_0" arrivalPos="65.39" arrivalSpeed="13.83" duration="190.00" routeLength="914.83" waitingTime="86.00" waitingCount="4" stopTime="0.00" timeLoss="145.56" rerouteNo="1" devices="tripinfo_43 routing_43" vType="DEFAULT_VEHTYPE" speedFactor="1.04" vaporized=""/>
    <tripinfo id="58" depart="87.00" departLane="-1194188298#1_0" departPos="5.10" departSpeed="0.00" departDelay="0.00" arrival="257.00" arrivalLane="793372646#2_1" arrivalPos="0.20" arrivalSpeed="13.11" duration="170.00" routeLength="544.32" waitingTime="99.00" waitingCount="4" stopTime="0.00" timeLoss="146.85" rerouteNo="1" devices="tripinfo_58 routing_58" vType="DEFAULT_VEHTYPE" speedFactor="1.02" vaporized=""/>
    <tripinfo id="101" depart="152.00" departLane="313874093#1_0" departPos="5.10" departSpeed="0.00" departDelay="0.50" arrival="260.00" arrivalLane="435724088#0_0" arrivalPos="18.47" arrivalSpeed="21.28" duration="108.00" routeLength="464.43" waitingTime="57.00" waitingCount="2" stopTime="0.00" timeLoss="81.88" rerouteNo="1" devices="tripinfo_101 routing_101" vType="DEFAULT_VEHTYPE" speedFactor="0.96" vaporized=""/>
    <tripinfo id="21" depart="32.00" departLane="-294712587_0" departPos="0.20" departSpeed="0.00" departDelay="0.50" arrival="261.00" arrivalLane="1051441730#0_0" arrivalPos="27.30" arrivalSpeed="22.77" duration="229.00" routeLength="1251.15" waitingTime="118.00" waitingCount="4" stopTime="0.00" timeLoss="180.38" rerouteNo="1" devices="tripinfo_21 routing_21" vType="DEFAULT_VEHTYPE" speedFactor="1.01" vaporized=""/>
    <tripinfo id="87" depart="131.00" departLane="23825858#0_0" departPos="5.10" departSpeed="0.00" departDelay="0.50" arrival="261.00" arrivalLane="59667608_0" arrivalPos="0.20" arrivalSpeed="9.06" duration="130.00" routeLength="516.75" waitingTime="74.00" waitingCount="2" stopTime="0.00" timeLoss="101.67" rerouteNo="1" devices="tripinfo_87 routing_87" vType="DEFAULT_VEHTYPE" speedFactor="1.04" vaporized=""/>
    <tripinfo id="129" depart="194.00" departLane="-1049318473#1_0" departPos="5.10" departSpeed="0.00" departDelay="0.50" arrival="261.00" arrivalLane="435724109#1_1" arrivalPos="59.81" arrivalSpeed="15.83" duration="67.00" routeLength="472.20" waitingTime="14.00" waitingCount="2" stopTime="0.00" timeLoss="44.35" rerouteNo="1" devices="tripinfo_129 routing_129" vType="DEFAULT_VEHTYPE" speedFactor="1.01" vaporized=""/>
    <tripinfo id="74" depart="111.00" departLane="1049318468#1_0" departPos="5.10" departSpeed="0.00" departDelay="0.00" arrival="264.00" arrivalLane="433784884#9_0" arrivalPos="44.91" arrivalSpeed="26.20" duration="153.00" routeLength="824.35" waitingTime="72.00" waitingCount="3" stopTime="0.00" timeLoss="121.26" rerouteNo="1" devices="tripinfo_74 routing_74" vType="DEFAULT_VEHTYPE" speedFactor="0.96" vaporized=""/>
    <tripinfo id="53" depart="80.00" departLane="1067743360#6_0" departPos="0.24" departSpeed="0.00" departDelay="0.50" arrival="265.00" arrivalLane="433783095#2_0" arrivalPos="0.20" arrivalSpeed="18.53" duration="185.00" routeLength="581.43" waitingTime="113.00" waitingCount="4" stopTime="0.00" timeLoss="162.29" rerouteNo="1" devices="tripinfo_53 routing_53" vType="DEFAULT_VEHTYPE" speedFactor="1.10" vaporized=""/>
    <tripinfo id="95" depart="143.00" departLane="1051441726#3_0" departPos="5.10" departSpeed="0.00" departDelay="0.50" arrival="267.00" arrivalLane="435724119#1_0" arrivalPos="0.20" arrivalSpeed="5.56" duration="124.00" routeLength="856.25" waitingTime="48.00" waitingCount="1" stopTime="0.00" timeLoss="91.86" rerouteNo="1" devices="tripinfo_95 routing_95" vType="DEFAULT_VEHTYPE" speedFactor="1.06" vaporized=""/>
    <tripinfo id="111" depart="167.00" departLane="433784884#7_0" departPos="0.20" departSpeed="0.00" departDelay="0.50" arrival="267.00" arrivalLane="1106630540#2_0" arrivalPos="74.96" arrivalSpeed="17.99" duration="100.00" routeLength="412.38" waitingTime="45.00" waitingCount="2" stopTime="0.00" timeLoss="78.37" rerouteNo="1" devices="tripinfo_111 routing_111" vType="DEFAULT_VEHTYPE" speedFactor="0.87" vaporized=""/>
    <tripinfo id="73" depart="110.00" departLane="59407132#3_0" departPos="5.10" departSpeed="0.00" departDelay="0.50" arrival="273.00" arrivalLane="-24090845#6_0" arrivalPos="18.89" arrivalSpeed="21.83" duration="163.00" routeLength="360.84" waitingTime="113.00" waitingCount="4" stopTime="0.00" timeLoss="145.19" rerouteNo="1" devices="tripinfo_73 routing_73" vType="DEFAULT_VEHTYPE" speedFactor="1.06" vaporized=""/>
    <tripinfo id="149" depart="224.00" departLane="59667619#4_0" departPos="5.10" departSpeed="0.00" departDelay="0.50" arrival="274.00" arrivalLane="59410419#2_0" arrivalPos="0.20" arrivalSpeed="20.81" duration="50.00" routeLength="448.09" waitingTime="3.00" waitingCount="1" stopTime="0.00" timeLoss="31.00" rerouteNo="1" devices="tripinfo_149 routing_149" vType="DEFAULT_VEHTYPE" speedFactor="1.04" vaporized=""/>
    <tripinfo id="139" depart="209.00" departLane="615900433#5_1" departPos="0.71" departSpeed="0.00" departDelay="0.50" arrival="278.00" arrivalLane="1015181072_1" arrivalPos="0.30" arrivalSpeed="26.44" duration="69.00" routeLength="780.31" waitingTime="6.00" waitingCount="2" stopTime="0.00" timeLoss="36.75" rerouteNo="1" devices="tripinfo_139 routing_139" vType="DEFAULT_VEHTYPE" speedFactor="0.95" vaporized=""/>
    <tripinfo id="71" depart="107.00" departLane="1049318466#0_0" departPos="5.10" departSpeed="0.00" departDelay="0.50" arrival="279.00" arrivalLane="1035941401#1_2" arrivalPos="0.20" arrivalSpeed="23.43" duration="172.00" routeLength="660.82" waitingTime="99.00" waitingCount="4" stopTime="0.00" timeLoss="146.29" rerouteNo="1" devices="tripinfo_71 routing_71" vType="DEFAULT_VEHTYPE" speedFactor="0.97" vaporized=""/>
    <tripinfo id="175" depart="263.00" departLane="-1033716708#0_0" departPos="0.20" departSpeed="0.00" departDelay="0.50" arrival="279.00" arrivalLane="1067743360#11_1" arrivalPos="10.88" arrivalSpeed="8.59" duration="16.00" routeLength="134.52" waitingTime="0.00" waitingCount="0" stopTime="0.00" timeLoss="8.71" rerouteNo="1" devices="tripinfo_175 routing_175" vType="DEFAULT_VEHTYPE" speedFactor="0.92" vaporized=""/>
    <tripinfo id="103" depart="155.00" departLane="24952967_0" departPos="0.20" departSpeed="0.00" departDelay="0.50" arrival="280.00" arrivalLane="59407132#0_1" arrivalPos="0.20" arrivalSpeed="5.73" duration="125.00" routeLength="677.04" waitingTime="45.00" waitingCount="2" stopTime="0.00" timeLoss="95.23" rerouteNo="1" devices="tripinfo_103 routing_103" vType="DEFAULT_VEHTYPE" speedFactor="0.95" vaporized=""/>
    <tripinfo id="35" depart="53.00" departLane="657718778#2_0" departPos="5.10" departSpeed="0.00" departDelay="0.50" arrival="293.00" arrivalLane="24090845#3_0" arrivalPos="42.57" arrivalSpeed="21.80" duration="240.00" routeLength="783.42" waitingTime="153.00" waitingCount="4" stopTime="0.00" timeLoss="207.02" rerouteNo="1" devices="tripinfo_35 routing_35" vType="DEFAULT_VEHTYPE" speedFactor="1.02" vaporized=""/>
    <tripinfo id="115" depart="173.00" departLane="-24090845#7_0" departPos="0.20" departSpeed="0.00" departDelay="0.50" arrival="295.00" arrivalLane="1028907899#1_0" arrivalPos="0.20" arrivalSpeed="6.07" duration="122.00" routeLength="659.49" waitingTime="47.00" waitingCount="4" stopTime="0.00" timeLoss="91.04" rerouteNo="1" devices="tripinfo_115 routing_115" vType="DEFAULT_VEHTYPE" speedFactor="0.92" vaporized=""/>
    <tripinfo id="163" depart="245.00" departLane="1049318472#1_0" departPos="0.64" departSpeed="0.00" departDelay="0.50" arrival="296.00" arrivalLane="435724035#0_0" arrivalPos="0.20" arrivalSpeed="9.68" duration="51.00" routeLength="273.12" waitingTime="20.00" waitingCount="2" stopTime="0.00" timeLoss="41.26" rerouteNo="1" devices="tripinfo_163 routing_163" vType="DEFAULT_VEHTYPE" speedFactor="1.13" vaporized=""/>
    <tripinfo id="92" depart="138.00" departLane="24102433#4_0" departPos="0.20" departSpeed="0.00" departDelay="0.00" arrival="297.00" arrivalLane="1028907899#1_0" arrivalPos="0.20" arrivalSpeed="8.54" duration="159.00" routeLength="772.96" waitingTime="71.00" waitingCount="3" stopTime="0.00" timeLoss="119.76" rerouteNo="1" devices="tripinfo_92 routing_92" vType="DEFAULT_VEHTYPE" speedFactor="0.83" vaporized=""/>
    <tripinfo id="37" depart="56.00" departLane="316762111#0_0" departPos="0.20" departSpeed="0.00" departDelay="0.50" arrival="299.00" arrivalLane="1051441726#6_0" arrivalPos="20.64" arrivalSpeed="12.14" duration="243.00" routeLength="1310.45" waitingTime="121.00" waitingCount="7" stopTime="0.00" timeLoss="200.50" rerouteNo="1" devices="tripinfo_37 routing_37" vType="DEFAULT_VEHTYPE" speedFactor="1.18" vaporized=""/>
    <tripinfo id="20" depart="30.00" departLane="-24091488#3_0" departPos="5.10" departSpeed="0.00" departDelay="0.00" arrival="300.00" arrivalLane="1049318468#2_0" arrivalPos="0.20" arrivalSpeed="18.37" duration="270.00" routeLength="1243.70" waitingTime="130.00" waitingCount="6" stopTime="0.00" timeLoss="219.62" rerouteNo="1" devices="tripinfo_20 routing_20" vType="DEFAULT_VEHTYPE" speedFactor="1.02" vaporized=""/>
    <tripinfo id="106" depart="159.00" departLane="319345471#1_0" departPos="5.10" departSpeed="0.00" departDelay="0.00" arrival="300.00" arrivalLane="433784889#2_1" arrivalPos="24.28" arrivalSpeed="16.19" duration="141.00" routeLength="509.48" waitingTime="75.00" waitingCount="4" stopTime="0.00" timeLoss="119.28" rerouteNo="1" devices="tripinfo_106 routing_106" vType="DEFAULT_VEHTYPE" speedFactor="1.01" vaporized=""/>
    <tripinfo id="62" depart="93.00" departLane="-24102433#2_0" departPos="0.25" departSpeed="0.00" departDelay="0.00" arrival="303.00" arrivalLane="24213759#4_1" arrivalPos="0.20" arrivalSpeed="22.08" duration="210.00" routeLength="589.13" waitingTime="132.00" waitingCount="5" stopTime="0.00" timeLoss="183.14" rerouteNo="1" devices="tripinfo_62 routing_62" vType="DEFAULT_VEHTYPE" speedFactor="1.02" vaporized=""/>
    <tripinfo id="38" depart="57.00" departLane="316764838#0_0" departPos="0.20" departSpeed="0.00" departDelay="0.00" arrival="305.00" arrivalLane="615900433#5_1" arrivalPos="0.71" arrivalSpeed="10.65" duration="248.00" routeLength="1315.08" waitingTime="130.00" waitingCount="5" stopTime="0.00" timeLoss="202.13" rerouteNo="1" devices="tripinfo_38 routing_38" vType="DEFAULT_VEHTYPE" speedFactor="1.10" vaporized=""/>
    <tripinfo id="66" depart="99.00" departLane="1051441726#3_0" departPos="5.10" departSpeed="0.00" departDelay="0.00" arrival="305.00" arrivalLane="59670543#0_0" arrivalPos="0.73" arrivalSpeed="5.18" duration="206.00" routeLength="909.34" waitingTime="104.00" waitingCount="7" stopTime="0.00" timeLoss="166.18" rerouteNo="1" devices="tripinfo_66 routing_66" vType="DEFAULT_VEHTYPE" speedFactor="0.91" vaporized=""/>
    <tripinfo id="112" depart="168.00" departLane="1127665632#2_0" departPos="5.10" departSpeed="0.00" departDelay="0.00" arrival="306.00" arrivalLane="435724090#0_0" arrivalPos="18.34" arrivalSpeed="10.91" duration="138.00" routeLength="346.06" waitingTime="96.00" waitingCount="2" stopTime="0.00" timeLoss="123.83" rerouteNo="1" devices="tripinfo_112 routing_112" vType="DEFAULT_VEHTYPE" speedFactor="1.10" vaporized=""/>
    <tripinfo id="50" depart="75.00" departLane="59670543#1_0" departPos="5.10" departSpeed="0.00" departDelay="0.00" arrival="307.00" arrivalLane="1051441726#7_0" arrivalPos="49.39" arrivalSpeed="18.48" duration="232.00" routeLength="1154.21" waitingTime="105.00" waitingCount="4" stopTime="0.00" timeLoss="174.87" rerouteNo="1" devices="tripinfo_50 routing_50" vType="DEFAULT_VEHTYPE" speedFactor="0.85" vaporized=""/>
    <tripinfo id="165" depart="248.00" departLane="312901458#1_0" departPos="4.96" departSpeed="0.00" departDelay="0.50" arrival="308.00" arrivalLane="435724044#0_2" arrivalPos="0.20" arrivalSpeed="24.17" duration="60.00" routeLength="428.99" waitingTime="19.00" waitingCount="1" stopTime="0.00" timeLoss="40.54" rerouteNo="1" devices="tripinfo_165 routing_165" vType="DEFAULT_VEHTYPE" speedFactor="0.91" vaporized=""/>
    <tripinfo id="12" depart="18.00" departLane="906195085_0" departPos="5.10" departSpeed="0.00" departDelay="0.00" arrival="310.00" arrivalLane="1191329603_0" arrivalPos="0.20" arrivalSpeed="16.92" duration="292.00" routeLength="1385.90" waitingTime="146.00" waitingCount="6" stopTime="0.00" timeLoss="236.48" rerouteNo="1" devices="tripinfo_12 routing_12" vType="DEFAULT_VEHTYPE" speedFactor="1.05" vaporized=""/>
    <tripinfo id="27" depart="41.00" departLane="-445290295#2_0" departPos="0.20" departSpeed="0.00" departDelay="0.50" arrival="313.00" arrivalLane="1351951431#6_0" arrivalPos="48.17" arrivalSpeed="4.86" duration="272.00" routeLength="898.40" waitingTime="163.00" waitingCount="6" stopTime="0.00" timeLoss="235.93" rerouteNo="1" devices="tripinfo_27 routing_27" vType="DEFAULT_VEHTYPE" speedFactor="0.95" vaporized=""/>
    <tripinfo id="56" depart="97.00" departLane="435724109#2_0" departPos="0.20" departSpeed="0.00" departDelay="13.00" arrival="314.00" arrivalLane="294839950#4_1" arrivalPos="0.20" arrivalSpeed="22.56" duration="217.00" routeLength="562.38" waitingTime="155.00" waitingCount="3" stopTime="0.00" timeLoss="190.06" rerouteNo="1" devices="tripinfo_56 routing_56" vType="DEFAULT_VEHTYPE" speedFactor="0.90" vaporized=""/>
    <tripinfo id="131" depart="197.00" departLane="435724077#0_0" departPos="5.10" departSpeed="0.00" departDelay="0.50" arrival="322.00" arrivalLane="316762110#2_0" arrivalPos="10.58" arrivalSpeed="14.94" duration="125.00" routeLength="1156.06" waitingTime="36.00" waitingCount="3" stopTime="0.00" timeLoss="84.47" rerouteNo="1" devices="tripinfo_131 routing_131" vType="DEFAULT_VEHTYPE" speedFactor="1.07" vaporized=""/>