<?xml version="1.0" encoding="UTF-8"?>

<!-- generated on 2026-04-14T14:11:29.043190+00:00 by Eclipse SUMO GUI 1.26.0
<sumoConfiguration xmlns:xsi="http://www.w3.org/2001/XMLSchema-instance" xsi:noNamespaceSchemaLocation="http://sumo.dlr.de/xsd/sumoConfiguration.xsd">

    <input>
        <net-file value="simulation/configs/../network/chicago.net.xml"/>
        <route-files value="simulation/configs/../routes/chicago_incident.rou.xml"/>
    </input>

    <output>
        <tripinfo-output value="simulation/configs/../../results/tripinfo_incident_reroute.xml"/>
        <edgedata-output value="simulation/configs/../../results/edge_data_incident_reroute.xml"/>
    </output>

    <time>
        <begin value="0"/>
        <end value="3600"/>
    </time>

    <traci_server>
        <remote-port value="63020"/>
    </traci_server>

</sumoConfiguration>
-->

<tripinfos xmlns:xsi="http://www.w3.org/2001/XMLSchema-instance" xsi:noNamespaceSchemaLocation="http://sumo.dlr.de/xsd/tripinfo_file.xsd">
    <tripinfo id="2" depart="3.00" departLane="435724069#1_0" departPos="5.10" departSpeed="0.00" departDelay="0.00" arrival="59.00" arrivalLane="433784889#3_1" arrivalPos="0.20" arrivalSpeed="26.43" duration="56.00" routeLength="540.14" waitingTime="7.00" waitingCount="1" stopTime="0.00" timeLoss="34.19" rerouteNo="1" devices="tripinfo_2 routing_2" vType="DEFAULT_VEHTYPE" speedFactor="1.01" vaporized=""/>
    <tripinfo id="19" depart="29.00" departLane="1038761526#0_0" departPos="5.10" departSpeed="0.00" departDelay="0.50" arrival="79.00" arrivalLane="1067743360#3_0" arrivalPos="0.20" arrivalSpeed="17.20" duration="50.00" routeLength="505.02" waitingTime="8.00" waitingCount="1" stopTime="0.00" timeLoss="32.12" rerouteNo="1" devices="tripinfo_19 routing_19" vType="DEFAULT_VEHTYPE" speedFactor="1.16" vaporized=""/>
    <tripinfo id="31" depart="47.00" departLane="1038761526#1_0" departPos="0.20" departSpeed="0.00" departDelay="0.50" arrival="101.00" arrivalLane="-134319745#1_0" arrivalPos="54.20" arrivalSpeed="24.38" duration="54.00" routeLength="515.94" waitingTime="12.00" waitingCount="2" stopTime="0.00" timeLoss="34.07" rerouteNo="1" devices="tripinfo_31 routing_31" vType="DEFAULT_VEHTYPE" speedFactor="1.15" vaporized=""/>
    <tripinfo id="17" depart="26.00" departLane="59410419#1_0" departPos="5.10" departSpeed="0.00" departDelay="0.50" arrival="102.00" arrivalLane="316764838#0_1" arrivalPos="0.20" arrivalSpeed="7.58" duration="76.00" routeLength="378.70" waitingTime="37.00" waitingCount="1" stopTime="0.00" timeLoss="57.79" rerouteNo="1" devices="tripinfo_17 routing_17" vType="DEFAULT_VEHTYPE" speedFactor="0.94" vaporized=""/>
    <tripinfo id="4" depart="6.00" departLane="236157091#1_0" departPos="5.10" departSpeed="0.00" departDelay="0.00" arrival="108.00" arrivalLane="-1287862806_0" arrivalPos="0.20" arrivalSpeed="11.92" duration="102.00" routeLength="695.69" waitingTime="31.00" waitingCount="2" stopTime="0.00" timeLoss="70.80" rerouteNo="1" devices="tripinfo_4 routing_4" vType="DEFAULT_VEHTYPE" speedFactor="1.03" vaporized=""/>
    <tripinfo id="60" depart="90.00" departLane="1106630540#2_0" departPos="5.10" departSpeed="0.00" departDelay="0.00" arrival="108.00" arrivalLane="-24071819#0_0" arrivalPos="0.20" arrivalSpeed="18.48" duration="18.00" routeLength="161.06" waitingTime="0.00" waitingCount="0" stopTime="0.00" timeLoss="10.17" rerouteNo="1" devices="tripinfo_60 routing_60" vType="DEFAULT_VEHTYPE" speedFactor="1.08" vaporized=""/>
    <tripinfo id="8" depart="12.00" departLane="1033716708#0_0" departPos="0.20" departSpeed="0.00" departDelay="0.00" arrival="109.00" arrivalLane="319345472#0_0" arrivalPos="43.93" arrivalSpeed="13.93" duration="97.00" routeLength="519.34" waitingTime="43.00" waitingCount="1" stopTime="0.00" timeLoss="71.80" rerouteNo="1" devices="tripinfo_8 routing_8" vType="DEFAULT_VEHTYPE" speedFactor="0.94" vaporized=""/>
    <tripinfo id="18" depart="27.00" departLane="435724011#1_0" departPos="0.20" departSpeed="0.00" departDelay="0.00" arrival="117.00" arrivalLane="-236157125#4_2" arrivalPos="0.20" arrivalSpeed="12.16" duration="90.00" routeLength="155.98" waitingTime="65.00" waitingCount="3" stopTime="0.00" timeLoss="75.48" rerouteNo="1" devices="tripinfo_18 routing_18" vType="DEFAULT_VEHTYPE" speedFactor="0.94" vaporized=""/>
    <tripinfo id="41" depart="62.00" departLane="-292339723#2_0" departPos="5.10" departSpeed="0.00" departDelay="0.50" arrival="129.00" arrivalLane="-23825858#0_0" arrivalPos="17.42" arrivalSpeed="20.44" duration="67.00" routeLength="147.20" waitingTime="50.00" waitingCount="1" stopTime="0.00" timeLoss="60.96" rerouteNo="1" devices="tripinfo_41 routing_41" vType="DEFAULT_VEHTYPE" speedFactor="0.96" vaporized=""/>
    <tripinfo id="6" depart="9.00" departLane="-1287862797_0" departPos="0.20" departSpeed="0.00" departDelay="0.00" arrival="141.00" arrivalLane="-833048839#3_0" arrivalPos="1.19" arrivalSpeed="13.45" duration="132.00" routeLength="430.60" waitingTime="89.00" waitingCount="2" stopTime="0.00" timeLoss="116.97" rerouteNo="1" devices="tripinfo_6 routing_6" vType="DEFAULT_VEHTYPE" speedFactor="1.05" vaporized=""/>
    <tripinfo id="69" depart="104.00" departLane="23700520#4_0" departPos="5.10" departSpeed="0.00" departDelay="0.50" arrival="145.00" arrivalLane="294582657#5_1" arrivalPos="36.75" arrivalSpeed="21.65" duration="41.00" routeLength="370.96" waitingTime="3.00" waitingCount="1" stopTime="0.00" timeLoss="21.37" rerouteNo="1" devices="tripinfo_69 routing_69" vType="DEFAULT_VEHTYPE" speedFactor="1.02" vaporized=""/>
    <tripinfo id="26" depart="39.00" departLane="-519223975_0" departPos="0.20" departSpeed="0.00" departDelay="0.00" arrival="147.00" arrivalLane="435724069#1_0" arrivalPos="30.47" arrivalSpeed="12.01" duration="108.00" routeLength="128.41" waitingTime="84.00" waitingCount="2" stopTime="0.00" timeLoss="96.47" rerouteNo="1" devices="tripinfo_26 routing_26" vType="DEFAULT_VEHTYPE" speedFactor="0.92" vaporized=""/>
    <tripinfo id="72" depart="108.00" departLane="-24090845#5_0" departPos="0.38" departSpeed="0.00" departDelay="0.00" arrival="152.00" arrivalLane="433783093#0_0" arrivalPos="0.20" arrivalSpeed="23.85" duration="44.00" routeLength="500.54" waitingTime="0.00" waitingCount="0" stopTime="0.00" timeLoss="21.91" rerouteNo="1" devices="tripinfo_72 routing_72" vType="DEFAULT_VEHTYPE" speedFactor="0.94" vaporized=""/>
    <tripinfo id="14" depart="21.00" departLane="4476711#4_0" departPos="0.20" departSpeed="0.00" departDelay="0.00" arrival="154.00" arrivalLane="435724069#1_0" arrivalPos="30.47" arrivalSpeed="11.85" duration="133.00" routeLength="506.52" waitingTime="78.00" waitingCount="2" stopTime="0.00" timeLoss="108.98" rerouteNo="1" devices="tripinfo_14 routing_14" vType="DEFAULT_VEHTYPE" speedFactor="0.99" vaporized=""/>
    <tripinfo id="39" depart="59.00" departLane="1449477173#4_0" departPos="5.10" departSpeed="0.00" departDelay="0.50" arrival="163.00" arrivalLane="1035941401#0_2" arrivalPos="53.95" arrivalSpeed="22.84" duration="104.00" routeLength="802.61" waitingTime="39.00" waitingCount="2" stopTime="0.00" timeLoss="69.04" rerouteNo="1" devices="tripinfo_39 routing_39" vType="DEFAULT_VEHTYPE" speedFactor="0.90" vaporized=""/>
    <tripinfo id="117" depart="176.00" departLane="59673547#1_0" departPos="0.20" departSpeed="0.00" departDelay="0.50" arrival="177.00" arrivalLane="59673547#1_0" arrivalPos="0.20" arrivalSpeed="1.38" duration="1.00" routeLength="0.00" waitingTime="0.00" waitingCount="0" stopTime="0.00" timeLoss="0.90" rerouteNo="1" devices="tripinfo_117 routing_117" vType="DEFAULT_VEHTYPE" speedFactor="1.00" vaporized=""/>
    <tripinfo id="64" depart="96.00" departLane="435724093#0_0" departPos="0.20" departSpeed="0.00" departDelay="0.00" arrival="184.00" arrivalLane="-433784890#0_0" arrivalPos="17.79" arrivalSpeed="9.16" duration="88.00" routeLength="277.82" waitingTime="50.00" waitingCount="2" stopTime="0.00" timeLoss="72.03" rerouteNo="1" devices="tripinfo_64 routing_64" vType="DEFAULT_VEHTYPE" speedFactor="0.94" vaporized=""/>
    <tripinfo id="5" depart="8.00" departLane="1028907899#1_0" departPos="0.20" departSpeed="0.00" departDelay="0.50" arrival="186.00" arrivalLane="292339723#1_0" arrivalPos="20.67" arrivalSpeed="11.79" duration="178.00" routeLength="716.45" waitingTime="106.00" waitingCount="4" stopTime="0.00" timeLoss="143.19" rerouteNo="1" devices="tripinfo_5 routing_5" vType="DEFAULT_VEHTYPE" speedFactor="0.83" vaporized=""/>
    <tripinfo id="15" depart="23.00" departLane="134319745#4_0" departPos="0.20" departSpeed="0.00" departDelay="0.50" arrival="189.00" arrivalLane="316762110#3_0" arrivalPos="27.81" arrivalSpeed="19.66" duration="166.00" routeLength="746.12" waitingTime="88.00" waitingCount="3" stopTime="0.00" timeLoss="131.64" rerouteNo="1" devices="tripinfo_15 routing_15" vType="DEFAULT_VEHTYPE" speedFactor="0.93" vaporized=""/>
    <tripinfo id="1" depart="2.00" departLane="1051441727#3_1" departPos="5.10" departSpeed="0.00" departDelay="0.50" arrival="190.00" arrivalLane="1038761526#1_1" arrivalPos="0.20" arrivalSpeed="22.13" duration="188.00" routeLength="678.16" waitingTime="115.00" waitingCount="4" stopTime="0.00" timeLoss="158.93" rerouteNo="1" devices="tripinfo_1 routing_1" vType="DEFAULT_VEHTYPE" speedFactor="0.94" vaporized=""/>
    <tripinfo id="33" depart="50.00" departLane="-973275640#0_0" departPos="5.10" departSpeed="0.00" departDelay="0.50" arrival="191.00" arrivalLane="833035173#2_1" arrivalPos="8.00" arrivalSpeed="22.06" duration="141.00" routeLength="964.37" waitingTime="35.00" waitingCount="4" stopTime="0.00" timeLoss="102.30" rerouteNo="1" devices="tripinfo_33 routing_33" vType="DEFAULT_VEHTYPE" speedFactor="1.17" vaporized=""/>
    <tripinfo id="49" depart="74.00" departLane="24071819#1_0" departPos="5.10" departSpeed="0.00" departDelay="0.50" arrival="191.00" arrivalLane="841064474#2_3" arrivalPos="0.30" arrivalSpeed="18.83" duration="117.00" routeLength="518.58" waitingTime="57.00" waitingCount="3" stopTime="0.00" timeLoss="90.07" rerouteNo="1" devices="tripinfo_49 routing_49" vType="DEFAULT_VEHTYPE" speedFactor="0.85" vaporized=""/>
    <tripinfo id="70" depart="105.00" departLane="1191328879#3_0" departPos="5.10" departSpeed="0.00" departDelay="0.00" arrival="191.00" arrivalLane="319345471#1_0" arrivalPos="47.44" arrivalSpeed="23.18" duration="86.00" routeLength="544.79" waitingTime="30.00" waitingCount="2" stopTime="0.00" timeLoss="63.41" rerouteNo="1" devices="tripinfo_70 routing_70" vType="DEFAULT_VEHTYPE" speedFactor="1.02" vaporized=""/>
    <tripinfo id="13" depart="20.00" departLane="-292339723#4_0" departPos="5.10" departSpeed="0.00" departDelay="0.50" arrival="192.00" arrivalLane="-294712584#1_0" arrivalPos="9.30" arrivalSpeed="17.55" duration="172.00" routeLength="667.07" waitingTime="107.00" waitingCount="2" stopTime="0.00" timeLoss="147.84" rerouteNo="1" devices="tripinfo_13 routing_13" vType="DEFAULT_VEHTYPE" speedFactor="1.12" vaporized=""/>
    <tripinfo id="24" depart="36.00" departLane="1051441726#4_0" departPos="0.20" departSpeed="0.00" departDelay="0.00" arrival="194.00" arrivalLane="805924007#0_0" arrivalPos="55.32" arrivalSpeed="20.56" duration="158.00" routeLength="912.47" waitingTime="72.00" waitingCount="4" stopTime="0.00" timeLoss="110.21" rerouteNo="1" devices="tripinfo_24 routing_24" vType="DEFAULT_VEHTYPE" speedFactor="0.83" vaporized=""/>
    <tripinfo id="68" depart="102.00" departLane="-833048839#0_0" departPos="5.10" departSpeed="0.00" departDelay="0.00" arrival="194.00" arrivalLane="1137122252#1_1" arrivalPos="0.20" arrivalSpeed="6.85" duration="92.00" routeLength="446.75" waitingTime="48.00" waitingCount="2" stopTime="0.00" timeLoss="74.75" rerouteNo="1" devices="tripinfo_68 routing_68" vType="DEFAULT_VEHTYPE" speedFactor="1.04" vaporized=""/>
    <tripinfo id="7" depart="11.00" departLane="433783097#2_0" departPos="5.10" departSpeed="0.00" departDelay="0.50" arrival="195.00" arrivalLane="315828468#1_1" arrivalPos="7.35" arrivalSpeed="12.03" duration="184.00" routeLength="1025.26" waitingTime="104.00" waitingCount="3" stopTime="0.00" timeLoss="139.48" rerouteNo="1" devices="tripinfo_7 routing_7" vType="DEFAULT_VEHTYPE" speedFactor="0.89" vaporized=""/>
    <tripinfo id="44" depart="66.00" departLane="-24090845#11_0" departPos="5.10" departSpeed="0.00" departDelay="0.00" arrival="196.00" arrivalLane="1362586127_0" arrivalPos="44.35" arrivalSpeed="19.39" duration="130.00" routeLength="638.79" waitingTime="60.00" waitingCount="3" stopTime="0.00" timeLoss="105.62" rerouteNo="1" devices="tripinfo_44 routing_44" vType="DEFAULT_VEHTYPE" speedFactor="1.04" vaporized=""/>
    <tripinfo id="3" depart="5.00" departLane="615645277#0_0" departPos="0.83" departSpeed="0.00" departDelay="0.50" arrival="197.00" arrivalLane="-24102433#4_0" arrivalPos="0.20" arrivalSpeed="5.96" duration="192.00" routeLength="952.56" waitingTime="100.00" waitingCount="4" stopTime="0.00" timeLoss="153.39" rerouteNo="1" devices="tripinfo_3 routing_3" vType="DEFAULT_VEHTYPE" speedFactor="1.08" vaporized=""/>
    <tripinfo id="9" depart="14.00" departLane="4476711#6_0" departPos="5.10" departSpeed="0.00" departDelay="0.50" arrival="197.00" arrivalLane="-1106630540#1_0" arrivalPos="2.20" arrivalSpeed="18.69" duration="183.00" routeLength="567.43" waitingTime="121.00" waitingCount="3" stopTime="0.00" timeLoss="153.93" rerouteNo="1" devices="tripinfo_9 routing_9" vType="DEFAULT_VEHTYPE" speedFactor="0.86" vaporized=""/>
    <tripinfo id="113" depart="170.00" departLane="-24090845#7_0" departPos="0.20" departSpeed="0.00" departDelay="0.50" arrival="200.00" arrivalLane="24090845#3_0" arrivalPos="42.57" arrivalSpeed="21.31" duration="30.00" routeLength="299.81" waitingTime="0.00" waitingCount="0" stopTime="0.00" timeLoss="14.43" rerouteNo="1" devices="tripinfo_113 routing_113" vType="DEFAULT_VEHTYPE" speedFactor="1.01" vaporized=""/>
    <tripinfo id="34" depart="51.00" departLane="59670543#1_0" departPos="5.10" departSpeed="0.00" departDelay="0.00" arrival="203.00" arrivalLane="1190700428#0_0" arrivalPos="0.20" arrivalSpeed="5.70" duration="152.00" routeLength="1350.95" waitingTime="42.00" waitingCount="3" stopTime="0.00" timeLoss="94.86" rerouteNo="1" devices="tripinfo_34 routing_34" vType="DEFAULT_VEHTYPE" speedFactor="0.99" vaporized=""/>
    <tripinfo id="85" depart="128.00" departLane="236157091#1_0" departPos="5.10" departSpeed="0.00" departDelay="0.50" arrival="203.00" arrivalLane="1051441730#0_1" arrivalPos="27.30" arrivalSpeed="24.15" duration="75.00" routeLength="671.98" waitingTime="12.00" waitingCount="1" stopTime="0.00" timeLoss="32.34" rerouteNo="1" devices="tripinfo_85 routing_85" vType="DEFAULT_VEHTYPE" speedFactor="0.98" vaporized=""/>
    <tripinfo id="46" depart="69.00" departLane="-1127665632#0_0" departPos="0.20" departSpeed="0.00" departDelay="0.00" arrival="214.00" arrivalLane="435724044#1_1" arrivalPos="17.37" arrivalSpeed="27.40" duration="145.00" routeLength="740.57" waitingTime="85.00" waitingCount="3" stopTime="0.00" timeLoss="118.04" rerouteNo="1" devices="tripinfo_46 routing_46" vType="DEFAULT_VEHTYPE" speedFactor="1.00" vaporized=""/>
    <tripinfo id="125" depart="188.00" departLane="-316762111#1_0" departPos="5.10" departSpeed="0.00" departDelay="0.50" arrival="216.00" arrivalLane="316762110#4_0" arrivalPos="26.58" arrivalSpeed="21.55" duration="28.00" routeLength="268.02" waitingTime="0.00" waitingCount="0" stopTime="0.00" timeLoss="17.29" rerouteNo="1" devices="tripinfo_125 routing_125" vType="DEFAULT_VEHTYPE" speedFactor="1.15" vaporized=""/>
    <tripinfo id="16" depart="24.00" departLane="4630404#4_0" departPos="0.20" departSpeed="0.00" departDelay="0.00" arrival="226.00" arrivalLane="381820996#3_3" arrivalPos="0.20" arrivalSpeed="4.54" duration="202.00" routeLength="648.61" waitingTime="121.00" waitingCount="5" stopTime="0.00" timeLoss="172.60" rerouteNo="1" devices="tripinfo_16 routing_16" vType="DEFAULT_VEHTYPE" speedFactor="0.88" vaporized=""/>
    <tripinfo id="23" depart="35.00" departLane="1287862806_0" departPos="0.20" departSpeed="0.00" departDelay="0.50" arrival="228.00" arrivalLane="1002803297#1_2" arrivalPos="30.23" arrivalSpeed="12.92" duration="193.00" routeLength="922.77" waitingTime="115.00" waitingCount="3" stopTime="0.00" timeLoss="151.66" rerouteNo="1" devices="tripinfo_23 routing_23" vType="DEFAULT_VEHTYPE" speedFactor="0.89" vaporized=""/>
    <tripinfo id="28" depart="42.00" departLane="973275640#1_0" departPos="0.11" departSpeed="0.00" departDelay="0.00" arrival="229.00" arrivalLane="433783096#1_2" arrivalPos="0.20" arrivalSpeed="22.78" duration="187.00" routeLength="714.81" waitingTime="117.00" waitingCount="4" stopTime="0.00" timeLoss="160.57" rerouteNo="1" devices="tripinfo_28 routing_28" vType="DEFAULT_VEHTYPE" speedFactor="1.13" vaporized=""/>
    <tripinfo id="58" depart="87.00" departLane="-1194188298#1_0" departPos="5.10" departSpeed="0.00" departDelay="0.00" arrival="231.00" arrivalLane="793372646#2_1" arrivalPos="0.20" arrivalSpeed="13.18" duration="144.00" routeLength="544.32" waitingTime="77.00" waitingCount="3" stopTime="0.00" timeLoss="121.78" rerouteNo="1" devices="tripinfo_58 routing_58" vType="DEFAULT_VEHTYPE" speedFactor="1.02" vaporized=""/>
    <tripinfo id="43" depart="65.00" departLane="445290295#0_0" departPos="0.20" departSpeed="0.00" departDelay="0.50" arrival="233.00" arrivalLane="236157423#0_0" arrivalPos="65.39" arrivalSpeed="13.30" duration="168.00" routeLength="914.83" waitingTime="66.00" waitingCount="4" stopTime="0.00" timeLoss="124.20" rerouteNo="1" devices="tripinfo_43 routing_43" vType="DEFAULT_VEHTYPE" speedFactor="1.04" vaporized=""/>
    <tripinfo id="10" depart="15.00" departLane="4476711#3_0" departPos="0.20" departSpeed="0.00" departDelay="0.00" arrival="235.00" arrivalLane="435724011#0_0" arrivalPos="40.46" arrivalSpeed="19.37" duration="220.00" routeLength="820.73" waitingTime="140.00" waitingCount="4" stopTime="0.00" timeLoss="186.81" rerouteNo="1" devices="tripinfo_10 routing_10" vType="DEFAULT_VEHTYPE" speedFactor="1.09" vaporized=""/>
    <tripinfo id="101" depart="152.00" departLane="313874093#1_0" departPos="5.10" departSpeed="0.00" departDelay="0.50" arrival="235.00" arrivalLane="435724088#0_1" arrivalPos="18.47" arrivalSpeed="21.04" duration="83.00" routeLength="464.43" waitingTime="30.00" waitingCount="2" stopTime="0.00" timeLoss="57.21" rerouteNo="1" devices="tripinfo_101 routing_101" vType="DEFAULT_VEHTYPE" speedFactor="0.96" vaporized=""/>
    <tripinfo id="21" depart="32.00" departLane="-294712587_0" departPos="0.20" departSpeed="0.00" departDelay="0.50" arrival="236.00" arrivalLane="1051441730#0_0" arrivalPos="27.30" arrivalSpeed="23.49" duration="204.00" routeLength="1251.15" waitingTime="78.00" waitingCount="6" stopTime="0.00" timeLoss="154.53" rerouteNo="1" devices="tripinfo_21 routing_21" vType="DEFAULT_VEHTYPE" speedFactor="1.01" vaporized=""/>
    <tripinfo id="32" depart="48.00" departLane="1127665632#2_0" departPos="5.10" departSpeed="0.00" departDelay="0.00" arrival="236.00" arrivalLane="1051441727#3_1" arrivalPos="41.60" arrivalSpeed="22.16" duration="188.00" routeLength="1166.62" waitingTime="64.00" waitingCount="4" stopTime="0.00" timeLoss="140.69" rerouteNo="1" devices="tripinfo_32 routing_32" vType="DEFAULT_VEHTYPE" speedFactor="1.01" vaporized=""/>
    <tripinfo id="53" depart="80.00" departLane="1067743360#6_0" departPos="0.24" departSpeed="0.00" departDelay="0.50" arrival="236.00" arrivalLane="433783095#2_1" arrivalPos="0.20" arrivalSpeed="22.12" duration="156.00" routeLength="581.43" waitingTime="91.00" waitingCount="4" stopTime="0.00" timeLoss="134.30" rerouteNo="1" devices="tripinfo_53 routing_53" vType="DEFAULT_VEHTYPE" speedFactor="1.10" vaporized=""/>
    <tripinfo id="74" depart="111.00" departLane="1049318468#1_0" departPos="5.10" departSpeed="0.00" departDelay="0.00" arrival="239.00" arrivalLane="433784884#9_0" arrivalPos="44.91" arrivalSpeed="25.58" duration="128.00" routeLength="824.35" waitingTime="52.00" waitingCount="3" stopTime="0.00" timeLoss="95.72" rerouteNo="1" devices="tripinfo_74 routing_74" vType="DEFAULT_VEHTYPE" speedFactor="0.96" vaporized=""/>
    <tripinfo id="87" depart="131.00" departLane="23825858#0_0" departPos="5.10" departSpeed="0.00" departDelay="0.50" arrival="239.00" arrivalLane="59667608_0" arrivalPos="0.20" arrivalSpeed="9.72" duration="108.00" routeLength="516.75" waitingTime="51.00" waitingCount="2" stopTime="0.00" timeLoss="79.27" rerouteNo="1" devices="tripinfo_87 routing_87" vType="DEFAULT_VEHTYPE" speedFactor="1.04" vaporized=""/>
    <tripinfo id="95" depart="143.00" departLane="1051441726#3_0" departPos="5.10" departSpeed="0.00" departDelay="0.50" arrival="241.00" arrivalLane="435724119#1_2" arrivalPos="0.20" arrivalSpeed="6.54" duration="98.00" routeLength="856.25" waitingTime="27.00" waitingCount="2" stopTime="0.00" timeLoss="66.40" rerouteNo="1" devices="tripinfo_95 routing_95" vType="DEFAULT_VEHTYPE" speedFactor="1.06" vaporized=""/>
    <tripinfo id="111" depart="167.00" departLane="433784884#7_0" departPos="0.20" departSpeed="0.00" departDelay="0.50" arrival="244.00" arrivalLane="1106630540#2_0" arrivalPos="74.96" arrivalSpeed="18.13" duration="77.00" routeLength="412.38" waitingTime="27.00" waitingCount="3" stopTime="0.00" timeLoss="56.80" rerouteNo="1" devices="tripinfo_111 routing_111" vType="DEFAULT_VEHTYPE" speedFactor="0.87" vaporized=""/>
    <tripinfo id="73" depart="110.00" departLane="59407132#3_0" departPos="5.10" departSpeed="0.00" departDelay="0.50" arrival="248.00" arrivalLane="-24090845#6_0" arrivalPos="18.89" arrivalSpeed="22.18" duration="138.00" routeLength="360.84" waitingTime="89.00" waitingCount="5" stopTime="0.00" timeLoss="119.63" rerouteNo="1" devices="tripinfo_73 routing_73" vType="DEFAULT_VEHTYPE" speedFactor="1.06" vaporized=""/>
    <tripinfo id="103" depart="155.00" departLane="24952967_0" departPos="0.20" departSpeed="0.00" departDelay="0.50" arrival="250.00" arrivalLane="59407132#0_1" arrivalPos="0.20" arrivalSpeed="5.55" duration="95.00" routeLength="677.04" waitingTime="5.00" waitingCount="1" stopTime="0.00" timeLoss="64.79" rerouteNo="1" devices="tripinfo_103 routing_103" vType="DEFAULT_VEHTYPE" speedFactor="0.95" vaporized=""/>
    <tripinfo id="71" depart="107.00" departLane="1049318466#0_0" departPos="5.10" departSpeed="0.00" departDelay="0.50" arrival="252.00" arrivalLane="1035941401#1_2" arrivalPos="0.20" arrivalSpeed="23.46" duration="145.00" routeLength="660.82" waitingTime="82.00" waitingCount="3" stopTime="0.00" timeLoss="119.30" rerouteNo="1" devices="tripinfo_71 routing_71" vType="DEFAULT_VEHTYPE" speedFactor="0.97" vaporized=""/>
    <tripinfo id="35" depart="53.00" departLane="657718778#2_0" departPos="5.10" departSpeed="0.00" departDelay="0.50" arrival="266.00" arrivalLane="24090845#3_0" arrivalPos="42.57" arrivalSpeed="21.52" duration="213.00" routeLength="783.42" waitingTime="127.00" waitingCount="3" stopTime="0.00" timeLoss="179.73" rerouteNo="1" devices="tripinfo_35 routing_35" vType="DEFAULT_VEHTYPE" speedFactor="1.02" vaporized=""/>
    <tripinfo id="115" depart="173.00" departLane="-24090845#7_0" departPos="0.20" departSpeed="0.00" departDelay="0.50" arrival="273.00" arrivalLane="1028907899#1_0" arrivalPos="0.20" arrivalSpeed="6.11" duration="100.00" routeLength="659.49" waitingTime="26.00" waitingCount="3" stopTime="0.00" timeLoss="69.46" rerouteNo="1" devices="tripinfo_115 routing_115" vType="DEFAULT_VEHTYPE" speedFactor="0.92" vaporized=""/>
    <tripinfo id="99" depart="149.00" departLane="-435724099#0_0" departPos="5.10" departSpeed="0.00" departDelay="0.50" arrival="274.00" arrivalLane="1083341324_0" arrivalPos="0.20" arrivalSpeed="8.59" duration="125.00" routeLength="343.70" waitingTime="86.00" waitingCount="4" stopTime="0.00" timeLoss="112.29" rerouteNo="1" devices="tripinfo_99 routing_99" vType="DEFAULT_VEHTYPE" speedFactor="1.10" vaporized=""/>
    <tripinfo id="92" depart="138.00" departLane="24102433#4_0" departPos="0.20" departSpeed="0.00" departDelay="0.00" arrival="275.00" arrivalLane="1028907899#1_0" arrivalPos="0.20" arrivalSpeed="6.72" duration="137.00" routeLength="772.96" waitingTime="45.00" waitingCount="4" stopTime="0.00" timeLoss="97.89" rerouteNo="1" devices="tripinfo_92 routing_92" vType="DEFAULT_VEHTYPE" speedFactor="0.83" vaporized=""/>
    <tripinfo id="106" depart="159.00" departLane="319345471#1_0" departPos="5.10" departSpeed="0.00" departDelay="0.00" arrival="278.00" arrivalLane="433784889#2_1" arrivalPos="24.28" arrivalSpeed="15.41" duration="119.00" routeLength="509.48" waitingTime="60.00" waitingCount="3" stopTime="0.00" timeLoss="97.09" rerouteNo="1" devices="tripinfo_106 routing_106" vType="DEFAULT_VEHTYPE" speedFactor="1.01" vaporized=""/>
    <tripinfo id="175" depart="263.00" departLane="-1033716708#0_0" departPos="0.20" departSpeed="0.00" departDelay="0.50" arrival="279.00" arrivalLane="1067743360#11_1" arrivalPos="10.88" arrivalSpeed="8.65" duration="16.00" routeLength="134.52" waitingTime="0.00" waitingCount="0" stopTime="0.00" timeLoss="8.72" rerouteNo="1" devices="tripinfo_175 routing_175" vType="DEFAULT_VEHTYPE" speedFactor="0.92" vaporized=""/>
    <tripinfo id="37" depart="56.00" departLane="316762111#0_0" departPos="0.20" departSpeed="0.00" departDelay="0.50" arrival="280.00" arrivalLane="1051441726#6_0" arrivalPos="20.64" arrivalSpeed="11.38" duration="224.00" routeLength="1310.45" waitingTime="96.00" waitingCount="6" stopTime="0.00" timeLoss="181.37" rerouteNo="1" devices="tripinfo_37 routing_37" vType="DEFAULT_VEHTYPE" speedFactor="1.18" vaporized=""/>
    <tripinfo id="62" depart="93.00" departLane="-24102433#2_0" departPos="0.25" departSpeed="0.00" departDelay="0.00" arrival="280.00" arrivalLane="24213759#4_1" arrivalPos="0.20" arrivalSpeed="20.91" duration="187.00" routeLength="589.13" waitingTime="120.00" waitingCount="4" stopTime="0.00" timeLoss="161.29" rerouteNo="1" devices="tripinfo_62 routing_62" vType="DEFAULT_VEHTYPE" speedFactor="1.02" vaporized=""/>
    <tripinfo id="76" depart="114.00" departLane="805911051#0_0" departPos="5.10" departSpeed="0.00" departDelay="0.00" arrival="280.00" arrivalLane="316764836#0_3" arrivalPos="0.20" arrivalSpeed="7.62" duration="166.00" routeLength="971.27" waitingTime="89.00" waitingCount="4" stopTime="0.00" timeLoss="128.94" rerouteNo="1" devices="tripinfo_76 routing_76" vType="DEFAULT_VEHTYPE" speedFactor="1.03" vaporized=""/>
    <tripinfo id="20" depart="30.00" departLane="-24091488#3_0" departPos="5.10" departSpeed="0.00" departDelay="0.00" arrival="281.00" arrivalLane="1049318468#2_0" arrivalPos="0.20" arrivalSpeed="17.05" duration="251.00" routeLength="1243.70" waitingTime="133.00" waitingCount="5" stopTime="0.00" timeLoss="200.69" rerouteNo="1" devices="tripinfo_20 routing_20" vType="DEFAULT_VEHTYPE" speedFactor="1.02" vaporized=""/>
    <tripinfo id="163" depart="245.00" departLane="1049318472#1_0" departPos="0.64" departSpeed="0.00" departDelay="0.50" arrival="281.00" arrivalLane="435724035#0_0" arrivalPos="0.20" arrivalSpeed="23.72" duration="36.00" routeLength="273.12" waitingTime="10.00" waitingCount="2" stopTime="0.00" timeLoss="25.74" rerouteNo="1" devices="tripinfo_163 routing_163" vType="DEFAULT_VEHTYPE" speedFactor="1.13" vaporized=""/>
    <tripinfo id="50" depart="75.00" departLane="59670543#1_0" departPos="5.10" departSpeed="0.00" departDelay="0.00" arrival="282.00" arrivalLane="1051441726#7_0" arrivalPos="49.39" arrivalSpeed="19.17" duration="207.00" routeLength="1154.21" waitingTime="103.00" waitingCount="5" stopTime="0.00" timeLoss="150.92" rerouteNo="1" devices="tripinfo_50 routing_50" vType="DEFAULT_VEHTYPE" speedFactor="0.85" vaporized=""/>
    <tripinfo id="38" depart="57.00" departLane="316764838#0_0" departPos="0.20" departSpeed="0.00" departDelay="0.00" arrival="283.00" arrivalLane="615900433#5_1" arrivalPos="0.71" arrivalSpeed="9.55" duration="226.00" routeLength="1315.08" waitingTime="102.00" waitingCount="7" stopTime="0.00" timeLoss="180.00" rerouteNo="1" devices="tripinfo_38 routing_38" vType="DEFAULT_VEHTYPE" speedFactor="1.10" vaporized=""/>
    <tripinfo id="0" depart="0.00" departLane="433783094#0_0" departPos="5.10" departSpeed="0.00" departDelay="0.00" arrival="285.00" arrivalLane="-1217799538_0" arrivalPos="0.20" arrivalSpeed="2.87" duration="285.00" routeLength="1010.93" waitingTime="179.00" waitingCount="7" stopTime="0.00" timeLoss="246.08" rerouteNo="1" devices="tripinfo_0 routing_0" vType="DEFAULT_VEHTYPE" speedFactor="1.06" vaporized=""/>
    <tripinfo id="91" depart="137.00" departLane="5263032#2_0" departPos="5.10" departSpeed="0.00" departDelay="0.50" arrival="285.00" arrivalLane="-519223973#1_1" arrivalPos="0.20" arrivalSpeed="3.11" duration="148.00" routeLength="565.74" waitingTime="78.00" waitingCount="3" stopTime="0.00" timeLoss="121.53" rerouteNo="1" devices="tripinfo_91 routing_91" vType="DEFAULT_VEHTYPE" speedFactor="0.89" vaporized=""/>
    <tripinfo id="165" depart="248.00" departLane="312901458#1_0" departPos="4.96" departSpeed="0.00" departDelay="0.50" arrival="285.00" arrivalLane="435724044#0_2" arrivalPos="0.20" arrivalSpeed="24.50" duration="37.00" routeLength="428.99" waitingTime="0.00" waitingCount="0" stopTime="0.00" timeLoss="18.01" rerouteNo="1" devices="tripinfo_165 routing_165" vType="DEFAULT_VEHTYPE" speedFactor="0.91" vaporized=""/>
    <tripinfo id="12" depart="18.00" departLane="906195085_0" departPos="5.10" departSpeed="0.00" departDelay="0.00" arrival="287.00" arrivalLane="1191329603_0" arrivalPos="0.20" arrivalSpeed="18.39" duration="269.00" routeLength="1385.90" waitingTime="126.00" waitingCount="5" stopTime="0.00" timeLoss="215.49" rerouteNo="1" devices="tripinfo_12 routing_12" vType="DEFAULT_VEHTYPE" speedFactor="1.05" vaporized=""/>