<?xml version="1.0" encoding="UTF-8"?>

<!-- generated on 2026-03-24T18:14:45.004971+00:00 by Eclipse SUMO GUI 1.26.0
<sumoConfiguration xmlns:xsi="http://www.w3.org/2001/XMLSchema-instance" xsi:noNamespaceSchemaLocation="http://sumo.dlr.de/xsd/sumoConfiguration.xsd">

    <input>
        <net-file value="simulation/configs/../network/chicago.net.xml"/>
        <route-files value="simulation/configs/../routes/chicago_low.rou.xml"/>
    </input>

    <output>
        <tripinfo-output value="simulation/configs/../../results/tripinfo_ai_low.xml"/>
        <edgedata-output value="simulation/configs/../../results/edge_data_ai_low.xml"/>
    </output>

    <time>
        <begin value="0"/>
        <end value="3600"/>
    </time>

    <traci_server>
        <remote-port value="51913"/>
    </traci_server>

</sumoConfiguration>
-->

<tripinfos xmlns:xsi="http://www.w3.org/2001/XMLSchema-instance" xsi:noNamespaceSchemaLocation="http://sumo.dlr.de/xsd/tripinfo_file.xsd">
    <tripinfo id="2" depart="10.00" departLane="435724069#1_0" departPos="5.10" departSpeed="0.00" departDelay="0.00" arrival="146.00" arrivalLane="433784889#3_1" arrivalPos="0.20" arrivalSpeed="25.95" duration="136.00" routeLength="540.14" waitingTime="75.00" waitingCount="3" stopTime="0.00" timeLoss="113.77" rerouteNo="1" devices="tripinfo_2 routing_2" vType="DEFAULT_VEHTYPE" speedFactor="1.01" vaporized=""/>
    <tripinfo id="6" depart="30.00" departLane="-1287862797_0" departPos="0.20" departSpeed="0.00" departDelay="0.00" arrival="146.00" arrivalLane="-833048839#3_0" arrivalPos="1.19" arrivalSpeed="13.78" duration="116.00" routeLength="430.60" waitingTime="73.00" waitingCount="2" stopTime="0.00" timeLoss="100.88" rerouteNo="1" devices="tripinfo_6 routing_6" vType="DEFAULT_VEHTYPE" speedFactor="1.05" vaporized=""/>
    <tripinfo id="14" depart="70.00" departLane="4476711#4_0" departPos="0.20" departSpeed="0.00" departDelay="0.00" arrival="149.00" arrivalLane="435724069#1_0" arrivalPos="30.47" arrivalSpeed="12.26" duration="79.00" routeLength="506.52" waitingTime="24.00" waitingCount="1" stopTime="0.00" timeLoss="55.43" rerouteNo="1" devices="tripinfo_14 routing_14" vType="DEFAULT_VEHTYPE" speedFactor="0.99" vaporized=""/>
    <tripinfo id="19" depart="95.00" departLane="1038761526#0_0" departPos="5.10" departSpeed="0.00" departDelay="0.00" arrival="171.00" arrivalLane="1067743360#3_0" arrivalPos="0.20" arrivalSpeed="17.80" duration="76.00" routeLength="505.02" waitingTime="29.00" waitingCount="2" stopTime="0.00" timeLoss="57.45" rerouteNo="1" devices="tripinfo_19 routing_19" vType="DEFAULT_VEHTYPE" speedFactor="1.16" vaporized=""/>
    <tripinfo id="1" depart="5.00" departLane="1051441727#3_1" departPos="5.10" departSpeed="0.00" departDelay="0.00" arrival="176.00" arrivalLane="1038761526#1_1" arrivalPos="0.20" arrivalSpeed="23.21" duration="171.00" routeLength="678.16" waitingTime="97.00" waitingCount="4" stopTime="0.00" timeLoss="142.75" rerouteNo="1" devices="tripinfo_1 routing_1" vType="DEFAULT_VEHTYPE" speedFactor="0.94" vaporized=""/>
    <tripinfo id="8" depart="40.00" departLane="1033716708#0_0" departPos="0.20" departSpeed="0.00" departDelay="0.00" arrival="180.00" arrivalLane="319345472#0_0" arrivalPos="43.93" arrivalSpeed="15.84" duration="140.00" routeLength="519.34" waitingTime="83.00" waitingCount="4" stopTime="0.00" timeLoss="114.43" rerouteNo="1" devices="tripinfo_8 routing_8" vType="DEFAULT_VEHTYPE" speedFactor="0.94" vaporized=""/>
    <tripinfo id="15" depart="75.00" departLane="134319745#4_0" departPos="0.20" departSpeed="0.00" departDelay="0.00" arrival="182.00" arrivalLane="316762110#3_0" arrivalPos="27.81" arrivalSpeed="20.06" duration="107.00" routeLength="746.12" waitingTime="29.00" waitingCount="3" stopTime="0.00" timeLoss="71.36" rerouteNo="1" devices="tripinfo_15 routing_15" vType="DEFAULT_VEHTYPE" speedFactor="0.93" vaporized=""/>
    <tripinfo id="9" depart="45.00" departLane="4476711#6_0" departPos="5.10" departSpeed="0.00" departDelay="0.00" arrival="189.00" arrivalLane="-1106630540#1_0" arrivalPos="2.20" arrivalSpeed="18.75" duration="144.00" routeLength="567.43" waitingTime="81.00" waitingCount="3" stopTime="0.00" timeLoss="114.95" rerouteNo="1" devices="tripinfo_9 routing_9" vType="DEFAULT_VEHTYPE" speedFactor="0.86" vaporized=""/>
    <tripinfo id="18" depart="90.00" departLane="435724011#1_0" departPos="0.20" departSpeed="0.00" departDelay="0.00" arrival="194.00" arrivalLane="-236157125#4_2" arrivalPos="0.20" arrivalSpeed="12.33" duration="104.00" routeLength="155.98" waitingTime="83.00" waitingCount="3" stopTime="0.00" timeLoss="90.07" rerouteNo="1" devices="tripinfo_18 routing_18" vType="DEFAULT_VEHTYPE" speedFactor="0.94" vaporized=""/>
    <tripinfo id="4" depart="20.00" departLane="236157091#1_0" departPos="5.10" departSpeed="0.00" departDelay="0.00" arrival="197.00" arrivalLane="-1287862806_0" arrivalPos="0.20" arrivalSpeed="12.69" duration="177.00" routeLength="695.69" waitingTime="95.00" waitingCount="4" stopTime="0.00" timeLoss="145.66" rerouteNo="1" devices="tripinfo_4 routing_4" vType="DEFAULT_VEHTYPE" speedFactor="1.03" vaporized=""/>
    <tripinfo id="17" depart="85.00" departLane="59410419#1_0" departPos="5.10" departSpeed="0.00" departDelay="0.00" arrival="200.00" arrivalLane="316764838#0_1" arrivalPos="0.20" arrivalSpeed="8.04" duration="115.00" routeLength="378.70" waitingTime="70.00" waitingCount="2" stopTime="0.00" timeLoss="97.52" rerouteNo="1" devices="tripinfo_17 routing_17" vType="DEFAULT_VEHTYPE" speedFactor="0.94" vaporized=""/>
    <tripinfo id="26" depart="130.00" departLane="-519223975_0" departPos="0.20" departSpeed="0.00" departDelay="0.00" arrival="240.00" arrivalLane="435724069#1_0" arrivalPos="30.47" arrivalSpeed="12.97" duration="110.00" routeLength="128.41" waitingTime="87.00" waitingCount="2" stopTime="0.00" timeLoss="98.45" rerouteNo="1" devices="tripinfo_26 routing_26" vType="DEFAULT_VEHTYPE" speedFactor="0.92" vaporized=""/>
    <tripinfo id="10" depart="50.00" departLane="4476711#3_0" departPos="0.20" departSpeed="0.00" departDelay="0.00" arrival="241.00" arrivalLane="435724011#0_0" arrivalPos="40.46" arrivalSpeed="18.90" duration="191.00" routeLength="820.73" waitingTime="112.00" waitingCount="3" stopTime="0.00" timeLoss="158.02" rerouteNo="1" devices="tripinfo_10 routing_10" vType="DEFAULT_VEHTYPE" speedFactor="1.09" vaporized=""/>
    <tripinfo id="41" depart="205.00" departLane="-292339723#2_0" departPos="5.10" departSpeed="0.00" departDelay="0.00" arrival="242.00" arrivalLane="-23825858#0_0" arrivalPos="17.42" arrivalSpeed="18.87" duration="37.00" routeLength="147.20" waitingTime="15.00" waitingCount="1" stopTime="0.00" timeLoss="31.24" rerouteNo="1" devices="tripinfo_41 routing_41" vType="DEFAULT_VEHTYPE" speedFactor="0.96" vaporized=""/>
    <tripinfo id="21" depart="105.00" departLane="-294712587_0" departPos="0.20" departSpeed="0.00" departDelay="0.00" arrival="247.00" arrivalLane="1051441730#0_0" arrivalPos="27.30" arrivalSpeed="25.48" duration="142.00" routeLength="1251.15" waitingTime="37.00" waitingCount="2" stopTime="0.00" timeLoss="93.27" rerouteNo="1" devices="tripinfo_21 routing_21" vType="DEFAULT_VEHTYPE" speedFactor="1.01" vaporized=""/>
    <tripinfo id="31" depart="155.00" departLane="1038761526#1_0" departPos="0.20" departSpeed="0.00" departDelay="0.00" arrival="286.00" arrivalLane="-134319745#1_0" arrivalPos="54.20" arrivalSpeed="23.14" duration="131.00" routeLength="515.94" waitingTime="76.00" waitingCount="3" stopTime="0.00" timeLoss="111.51" rerouteNo="1" devices="tripinfo_31 routing_31" vType="DEFAULT_VEHTYPE" speedFactor="1.15" vaporized=""/>
    <tripinfo id="33" depart="165.00" departLane="-973275640#0_0" departPos="5.10" departSpeed="0.00" departDelay="0.00" arrival="287.00" arrivalLane="833035173#2_0" arrivalPos="8.00" arrivalSpeed="23.08" duration="122.00" routeLength="964.37" waitingTime="27.00" waitingCount="2" stopTime="0.00" timeLoss="83.15" rerouteNo="1" devices="tripinfo_33 routing_33" vType="DEFAULT_VEHTYPE" speedFactor="1.17" vaporized=""/>
    <tripinfo id="3" depart="15.00" departLane="615645277#0_0" departPos="0.83" departSpeed="0.00" departDelay="0.00" arrival="292.00" arrivalLane="-24102433#4_0" arrivalPos="0.20" arrivalSpeed="5.89" duration="277.00" routeLength="952.56" waitingTime="175.00" waitingCount="7" stopTime="0.00" timeLoss="238.02" rerouteNo="1" devices="tripinfo_3 routing_3" vType="DEFAULT_VEHTYPE" speedFactor="1.08" vaporized=""/>
    <tripinfo id="24" depart="120.00" departLane="1051441726#4_0" departPos="0.20" departSpeed="0.00" departDelay="0.00" arrival="293.00" arrivalLane="805924007#0_0" arrivalPos="55.32" arrivalSpeed="18.92" duration="173.00" routeLength="912.47" waitingTime="78.00" waitingCount="5" stopTime="0.00" timeLoss="125.66" rerouteNo="1" devices="tripinfo_24 routing_24" vType="DEFAULT_VEHTYPE" speedFactor="0.83" vaporized=""/>
    <tripinfo id="5" depart="25.00" departLane="1028907899#1_0" departPos="0.20" departSpeed="0.00" departDelay="0.00" arrival="297.00" arrivalLane="292339723#1_0" arrivalPos="20.67" arrivalSpeed="12.34" duration="272.00" routeLength="716.45" waitingTime="194.00" waitingCount="5" stopTime="0.00" timeLoss="237.31" rerouteNo="1" devices="tripinfo_5 routing_5" vType="DEFAULT_VEHTYPE" speedFactor="0.83" vaporized=""/>
    <tripinfo id="7" depart="35.00" departLane="433783097#2_0" departPos="5.10" departSpeed="0.00" departDelay="0.00" arrival="303.00" arrivalLane="315828468#1_1" arrivalPos="7.35" arrivalSpeed="11.82" duration="268.00" routeLength="1025.26" waitingTime="171.00" waitingCount="5" stopTime="0.00" timeLoss="223.73" rerouteNo="1" devices="tripinfo_7 routing_7" vType="DEFAULT_VEHTYPE" speedFactor="0.89" vaporized=""/>
    <tripinfo id="0" depart="0.00" departLane="433783094#0_0" departPos="5.10" departSpeed="0.00" departDelay="0.00" arrival="308.00" arrivalLane="-1217799538_0" arrivalPos="0.20" arrivalSpeed="3.70" duration="308.00" routeLength="1010.93" waitingTime="190.00" waitingCount="9" stopTime="0.00" timeLoss="269.68" rerouteNo="1" devices="tripinfo_0 routing_0" vType="DEFAULT_VEHTYPE" speedFactor="1.06" vaporized=""/>
    <tripinfo id="60" depart="300.00" departLane="1106630540#2_0" departPos="5.10" departSpeed="0.00" departDelay="0.00" arrival="317.00" arrivalLane="-24071819#0_0" arrivalPos="0.20" arrivalSpeed="17.48" duration="17.00" routeLength="161.06" waitingTime="0.00" waitingCount="0" stopTime="0.00" timeLoss="9.76" rerouteNo="1" devices="tripinfo_60 routing_60" vType="DEFAULT_VEHTYPE" speedFactor="1.08" vaporized=""/>
    <tripinfo id="16" depart="80.00" departLane="4630404#4_0" departPos="0.20" departSpeed="0.00" departDelay="0.00" arrival="336.00" arrivalLane="381820996#3_3" arrivalPos="0.20" arrivalSpeed="3.24" duration="256.00" routeLength="648.61" waitingTime="174.00" waitingCount="6" stopTime="0.00" timeLoss="226.42" rerouteNo="1" devices="tripinfo_16 routing_16" vType="DEFAULT_VEHTYPE" speedFactor="0.88" vaporized=""/>
    <tripinfo id="32" depart="160.00" departLane="1127665632#2_0" departPos="5.10" departSpeed="0.00" departDelay="0.00" arrival="350.00" arrivalLane="1051441727#3_1" arrivalPos="41.60" arrivalSpeed="20.94" duration="190.00" routeLength="1166.62" waitingTime="90.00" waitingCount="3" stopTime="0.00" timeLoss="143.14" rerouteNo="1" devices="tripinfo_32 routing_32" vType="DEFAULT_VEHTYPE" speedFactor="1.01" vaporized=""/>
    <tripinfo id="11" depart="55.00" departLane="1191329600#0_0" departPos="5.10" departSpeed="0.00" departDelay="0.00" arrival="355.00" arrivalLane="-435724103#1_1" arrivalPos="0.20" arrivalSpeed="6.15" duration="300.00" routeLength="1349.03" waitingTime="161.00" waitingCount="7" stopTime="0.00" timeLoss="247.52" rerouteNo="1" devices="tripinfo_11 routing_11" vType="DEFAULT_VEHTYPE" speedFactor="1.03" vaporized=""/>
    <tripinfo id="39" depart="195.00" departLane="1449477173#4_0" departPos="5.10" departSpeed="0.00" departDelay="0.00" arrival="366.00" arrivalLane="1035941401#0_2" arrivalPos="53.95" arrivalSpeed="23.22" duration="171.00" routeLength="802.61" waitingTime="90.00" waitingCount="3" stopTime="0.00" timeLoss="136.61" rerouteNo="1" devices="tripinfo_39 routing_39" vType="DEFAULT_VEHTYPE" speedFactor="0.90" vaporized=""/>
    <tripinfo id="37" depart="185.00" departLane="316762111#0_0" departPos="0.20" departSpeed="0.00" departDelay="0.00" arrival="385.00" arrivalLane="1051441726#6_0" arrivalPos="20.64" arrivalSpeed="12.42" duration="200.00" routeLength="1310.45" waitingTime="82.00" waitingCount="5" stopTime="0.00" timeLoss="158.01" rerouteNo="1" devices="tripinfo_37 routing_37" vType="DEFAULT_VEHTYPE" speedFactor="1.18" vaporized=""/>
    <tripinfo id="64" depart="320.00" departLane="435724093#0_0" departPos="0.20" departSpeed="0.00" departDelay="0.00" arrival="386.00" arrivalLane="-433784890#0_0" arrivalPos="17.79" arrivalSpeed="9.74" duration="66.00" routeLength="277.82" waitingTime="29.00" waitingCount="1" stopTime="0.00" timeLoss="50.66" rerouteNo="1" devices="tripinfo_64 routing_64" vType="DEFAULT_VEHTYPE" speedFactor="0.94" vaporized=""/>
    <tripinfo id="27" depart="135.00" departLane="-445290295#2_0" departPos="0.20" departSpeed="0.00" departDelay="0.00" arrival="391.00" arrivalLane="1351951431#6_1" arrivalPos="48.17" arrivalSpeed="22.39" duration="256.00" routeLength="898.40" waitingTime="166.00" waitingCount="6" stopTime="0.00" timeLoss="219.44" rerouteNo="1" devices="tripinfo_27 routing_27" vType="DEFAULT_VEHTYPE" speedFactor="0.95" vaporized=""/>
    <tripinfo id="20" depart="100.00" departLane="-24091488#3_0" departPos="5.10" departSpeed="0.00" departDelay="0.00" arrival="394.00" arrivalLane="1049318468#2_0" arrivalPos="0.20" arrivalSpeed="17.43" duration="294.00" routeLength="1243.70" waitingTime="161.00" waitingCount="7" stopTime="0.00" timeLoss="242.84" rerouteNo="1" devices="tripinfo_20 routing_20" vType="DEFAULT_VEHTYPE" speedFactor="1.02" vaporized=""/>
    <tripinfo id="12" depart="60.00" departLane="906195085_0" departPos="5.10" departSpeed="0.00" departDelay="0.00" arrival="398.00" arrivalLane="1191329603_0" arrivalPos="0.20" arrivalSpeed="16.37" duration="338.00" routeLength="1385.90" waitingTime="190.00" waitingCount="7" stopTime="0.00" timeLoss="283.29" rerouteNo="1" devices="tripinfo_12 routing_12" vType="DEFAULT_VEHTYPE" speedFactor="1.05" vaporized=""/>
    <tripinfo id="54" depart="270.00" departLane="337681340#1_0" departPos="5.10" departSpeed="0.00" departDelay="0.00" arrival="398.00" arrivalLane="-435724099#1_0" arrivalPos="0.20" arrivalSpeed="11.13" duration="128.00" routeLength="781.29" waitingTime="65.00" waitingCount="1" stopTime="0.00" timeLoss="97.06" rerouteNo="1" devices="tripinfo_54 routing_54" vType="DEFAULT_VEHTYPE" speedFactor="1.00" vaporized=""/>
    <tripinfo id="49" depart="245.00" departLane="24071819#1_0" departPos="5.10" departSpeed="0.00" departDelay="0.00" arrival="403.00" arrivalLane="841064474#2_3" arrivalPos="0.30" arrivalSpeed="17.48" duration="158.00" routeLength="518.58" waitingTime="92.00" waitingCount="4" stopTime="0.00" timeLoss="131.87" rerouteNo="1" devices="tripinfo_49 routing_49" vType="DEFAULT_VEHTYPE" speedFactor="0.85" vaporized=""/>
    <tripinfo id="34" depart="170.00" departLane="59670543#1_0" departPos="5.10" departSpeed="0.00" departDelay="0.00" arrival="406.00" arrivalLane="1190700428#0_0" arrivalPos="0.20" arrivalSpeed="5.39" duration="236.00" routeLength="1350.95" waitingTime="114.00" waitingCount="4" stopTime="0.00" timeLoss="180.69" rerouteNo="1" devices="tripinfo_34 routing_34" vType="DEFAULT_VEHTYPE" speedFactor="0.99" vaporized=""/>
    <tripinfo id="52" depart="260.00" departLane="657718778#0_0" departPos="0.20" departSpeed="0.00" departDelay="0.00" arrival="408.00" arrivalLane="59667619#4_0" arrivalPos="23.14" arrivalSpeed="18.86" duration="148.00" routeLength="1068.91" waitingTime="47.00" waitingCount="3" stopTime="0.00" timeLoss="106.07" rerouteNo="1" devices="tripinfo_52 routing_52" vType="DEFAULT_VEHTYPE" speedFactor="1.02" vaporized=""/>
    <tripinfo id="13" depart="65.00" departLane="-292339723#4_0" departPos="5.10" departSpeed="0.00" departDelay="0.00" arrival="412.00" arrivalLane="-294712584#1_1" arrivalPos="9.30" arrivalSpeed="8.52" duration="347.00" routeLength="667.07" waitingTime="252.00" waitingCount="5" stopTime="0.00" timeLoss="322.38" rerouteNo="1" devices="tripinfo_13 routing_13" vType="DEFAULT_VEHTYPE" speedFactor="1.12" vaporized=""/>
    <tripinfo id="67" depart="335.00" departLane="313874092_0" departPos="5.10" departSpeed="0.00" departDelay="0.00" arrival="418.00" arrivalLane="435724069#1_1" arrivalPos="30.47" arrivalSpeed="12.45" duration="83.00" routeLength="479.14" waitingTime="35.00" waitingCount="1" stopTime="0.00" timeLoss="57.62" rerouteNo="1" devices="tripinfo_67 routing_67" vType="DEFAULT_VEHTYPE" speedFactor="0.91" vaporized=""/>
    <tripinfo id="36" depart="180.00" departLane="1051441726#2_0" departPos="5.10" departSpeed="0.00" departDelay="0.00" arrival="425.00" arrivalLane="1049318472#0_3" arrivalPos="27.12" arrivalSpeed="4.88" duration="245.00" routeLength="1353.01" waitingTime="118.00" waitingCount="5" stopTime="0.00" timeLoss="191.42" rerouteNo="1" devices="tripinfo_36 routing_36" vType="DEFAULT_VEHTYPE" speedFactor="0.97" vaporized=""/>
    <tripinfo id="46" depart="230.00" departLane="-1127665632#0_0" departPos="0.20" departSpeed="0.00" departDelay="0.00" arrival="429.00" arrivalLane="435724044#1_1" arrivalPos="17.37" arrivalSpeed="26.62" duration="199.00" routeLength="740.57" waitingTime="137.00" waitingCount="3" stopTime="0.00" timeLoss="171.42" rerouteNo="1" devices="tripinfo_46 routing_46" vType="DEFAULT_VEHTYPE" speedFactor="1.00" vaporized=""/>
    <tripinfo id="22" depart="110.00" departLane="433781990#0_0" departPos="5.10" departSpeed="0.00" departDelay="0.00" arrival="440.00" arrivalLane="134319745#0_0" arrivalPos="0.20" arrivalSpeed="5.96" duration="330.00" routeLength="550.92" waitingTime="247.00" waitingCount="7" stopTime="0.00" timeLoss="306.59" rerouteNo="1" devices="tripinfo_22 routing_22" vType="DEFAULT_VEHTYPE" speedFactor="0.97" vaporized=""/>
    <tripinfo id="43" depart="215.00" departLane="445290295#0_0" departPos="0.20" departSpeed="0.00" departDelay="0.00" arrival="446.00" arrivalLane="236157423#0_0" arrivalPos="65.39" arrivalSpeed="12.74" duration="231.00" routeLength="914.83" waitingTime="126.00" waitingCount="5" stopTime="0.00" timeLoss="186.45" rerouteNo="1" devices="tripinfo_43 routing_43" vType="DEFAULT_VEHTYPE" speedFactor="1.04" vaporized=""/>
    <tripinfo id="23" depart="117.00" departLane="1287862806_0" departPos="0.20" departSpeed="0.00" departDelay="2.00" arrival="447.00" arrivalLane="1002803297#1_2" arrivalPos="30.23" arrivalSpeed="13.34" duration="330.00" routeLength="922.77" waitingTime="239.00" waitingCount="7" stopTime="0.00" timeLoss="288.54" rerouteNo="1" devices="tripinfo_23 routing_23" vType="DEFAULT_VEHTYPE" speedFactor="0.89" vaporized=""/>
    <tripinfo id="58" depart="290.00" departLane="-1194188298#1_0" departPos="5.10" departSpeed="0.00" departDelay="0.00" arrival="448.00" arrivalLane="793372646#2_1" arrivalPos="0.20" arrivalSpeed="13.50" duration="158.00" routeLength="544.32" waitingTime="88.00" waitingCount="4" stopTime="0.00" timeLoss="135.21" rerouteNo="1" devices="tripinfo_58 routing_58" vType="DEFAULT_VEHTYPE" speedFactor="1.02" vaporized=""/>
    <tripinfo id="53" depart="265.00" departLane="1067743360#6_0" departPos="0.24" departSpeed="0.00" departDelay="0.00" arrival="453.00" arrivalLane="433783095#2_0" arrivalPos="0.20" arrivalSpeed="21.55" duration="188.00" routeLength="581.43" waitingTime="116.00" waitingCount="3" stopTime="0.00" timeLoss="165.13" rerouteNo="1" devices="tripinfo_53 routing_53" vType="DEFAULT_VEHTYPE" speedFactor="1.10" vaporized=""/>
    <tripinfo id="69" depart="345.00" departLane="23700520#4_0" departPos="5.10" departSpeed="0.00" departDelay="0.00" arrival="453.00" arrivalLane="294582657#5_1" arrivalPos="36.75" arrivalSpeed="20.42" duration="108.00" routeLength="370.96" waitingTime="65.00" waitingCount="3" stopTime="0.00" timeLoss="88.05" rerouteNo="1" devices="tripinfo_69 routing_69" vType="DEFAULT_VEHTYPE" speedFactor="1.02" vaporized=""/>
    <tripinfo id="73" depart="365.00" departLane="59407132#3_0" departPos="5.10" departSpeed="0.00" departDelay="0.00" arrival="455.00" arrivalLane="-24090845#6_0" arrivalPos="18.89" arrivalSpeed="21.97" duration="90.00" routeLength="360.84" waitingTime="46.00" waitingCount="2" stopTime="0.00" timeLoss="71.88" rerouteNo="1" devices="tripinfo_73 routing_73" vType="DEFAULT_VEHTYPE" speedFactor="1.06" vaporized=""/>
    <tripinfo id="72" depart="360.00" departLane="-24090845#5_0" departPos="0.38" departSpeed="0.00" departDelay="0.00" arrival="457.00" arrivalLane="433783093#0_0" arrivalPos="0.20" arrivalSpeed="25.03" duration="97.00" routeLength="500.54" waitingTime="38.00" waitingCount="3" stopTime="0.00" timeLoss="72.07" rerouteNo="1" devices="tripinfo_72 routing_72" vType="DEFAULT_VEHTYPE" speedFactor="0.94" vaporized=""/>
    <tripinfo id="25" depart="125.00" departLane="433783097#0_0" departPos="0.20" departSpeed="0.00" departDelay="0.00" arrival="465.00" arrivalLane="372671686#1_0" arrivalPos="116.70" arrivalSpeed="11.59" duration="340.00" routeLength="1890.06" waitingTime="170.00" waitingCount="10" stopTime="0.00" timeLoss="238.04" rerouteNo="1" devices="tripinfo_25 routing_25" vType="DEFAULT_VEHTYPE" speedFactor="0.87" vaporized=""/>
    <tripinfo id="71" depart="355.00" departLane="1049318466#0_0" departPos="5.10" departSpeed="0.00" departDelay="0.00" arrival="470.00" arrivalLane="1035941401#1_2" arrivalPos="0.20" arrivalSpeed="24.49" duration="115.00" routeLength="660.82" waitingTime="53.00" waitingCount="2" stopTime="0.00" timeLoss="89.23" rerouteNo="1" devices="tripinfo_71 routing_71" vType="DEFAULT_VEHTYPE" speedFactor="0.97" vaporized=""/>
    <tripinfo id="35" depart="175.00" departLane="657718778#2_0" departPos="5.10" departSpeed="0.00" departDelay="0.00" arrival="483.00" arrivalLane="24090845#3_0" arrivalPos="42.57" arrivalSpeed="21.63" duration="308.00" routeLength="783.42" waitingTime="216.00" waitingCount="5" stopTime="0.00" timeLoss="274.51" rerouteNo="1" devices="tripinfo_35 routing_35" vType="DEFAULT_VEHTYPE" speedFactor="1.02" vaporized=""/>
    <tripinfo id="50" depart="250.00" departLane="59670543#1_0" departPos="5.10" departSpeed="0.00" departDelay="0.00" arrival="492.00" arrivalLane="1051441726#7_0" arrivalPos="49.39" arrivalSpeed="18.72" duration="242.00" routeLength="1154.21" waitingTime="128.00" waitingCount="5" stopTime="0.00" timeLoss="185.60" rerouteNo="1" devices="tripinfo_50 routing_50" vType="DEFAULT_VEHTYPE" speedFactor="0.85" vaporized=""/>
    <tripinfo id="62" depart="310.00" departLane="-24102433#2_0" departPos="0.25" departSpeed="0.00" departDelay="0.00" arrival="493.00" arrivalLane="24213759#4_1" arrivalPos="0.20" arrivalSpeed="20.96" duration="183.00" routeLength="589.13" waitingTime="107.00" waitingCount="5" stopTime="0.00" timeLoss="156.45" rerouteNo="1" devices="tripinfo_62 routing_62" vType="DEFAULT_VEHTYPE" speedFactor="1.02" vaporized=""/>
    <tripinfo id="66" depart="330.00" departLane="1051441726#3_0" departPos="5.10" departSpeed="0.00" departDelay="0.00" arrival="493.00" arrivalLane="59670543#0_0" arrivalPos="0.73" arrivalSpeed="4.48" duration="163.00" routeLength="909.34" waitingTime="70.00" waitingCount="4" stopTime="0.00" timeLoss="124.22" rerouteNo="1" devices="tripinfo_66 routing_66" vType="DEFAULT_VEHTYPE" speedFactor="0.91" vaporized=""/>
    <tripinfo id="68" depart="340.00" departLane="-833048839#0_0" departPos="5.10" departSpeed="0.00" departDelay="0.00" arrival="496.00" arrivalLane="1137122252#1_1" arrivalPos="0.20" arrivalSpeed="6.78" duration="156.00" routeLength="446.75" waitingTime="104.00" waitingCount="3" stopTime="0.00" timeLoss="139.37" rerouteNo="1" devices="tripinfo_68 routing_68" vType="DEFAULT_VEHTYPE" speedFactor="1.04" vaporized=""/>
    <tripinfo id="38" depart="190.00" departLane="316764838#0_0" departPos="0.20" departSpeed="0.00" departDelay="0.00" arrival="497.00" arrivalLane="615900433#5_1" arrivalPos="0.71" arrivalSpeed="12.51" duration="307.00" routeLength="1315.08" waitingTime="186.00" waitingCount="6" stopTime="0.00" timeLoss="260.93" rerouteNo="1" devices="tripinfo_38 routing_38" vType="DEFAULT_VEHTYPE" speedFactor="1.10" vaporized=""/>
    <tripinfo id="70" depart="350.00" departLane="1191328879#3_0" departPos="5.10" departSpeed="0.00" departDelay="0.00" arrival="500.00" arrivalLane="319345471#1_0" arrivalPos="47.44" arrivalSpeed="21.49" duration="150.00" routeLength="544.80" waitingTime="91.00" waitingCount="2" stopTime="0.00" timeLoss="127.48" rerouteNo="1" devices="tripinfo_70 routing_70" vType="DEFAULT_VEHTYPE" speedFactor="1.02" vaporized=""/>
    <tripinfo id="29" depart="145.00" departLane="316762110#1_0" departPos="5.10" departSpeed="0.00" departDelay="0.00" arrival="503.00" arrivalLane="435558491#1_0" arrivalPos="12.93" arrivalSpeed="11.33" duration="358.00" routeLength="1323.02" waitingTime="222.00" waitingCount="7" stopTime="0.00" timeLoss="304.71" rerouteNo="1" devices="tripinfo_29 routing_29" vType="DEFAULT_VEHTYPE" speedFactor="0.93" vaporized=""/>
    <tripinfo id="63" depart="315.00" departLane="-24090845#4_0" departPos="0.20" departSpeed="0.00" departDelay="0.00" arrival="503.00" arrivalLane="435724099#0_0" arrivalPos="13.16" arrivalSpeed="15.66" duration="188.00" routeLength="669.54" waitingTime="116.00" waitingCount="3" stopTime="0.00" timeLoss="157.06" rerouteNo="1" devices="tripinfo_63 routing_63" vType="DEFAULT_VEHTYPE" speedFactor="0.99" vaporized=""/>
    <tripinfo id="56" depart="280.00" departLane="435724109#2_0" departPos="0.20" departSpeed="0.00" departDelay="0.00" arrival="505.00" arrivalLane="294839950#4_1" arrivalPos="0.20" arrivalSpeed="22.79" duration="225.00" routeLength="562.38" waitingTime="164.00" waitingCount="3" stopTime="0.00" timeLoss="198.00" rerouteNo="1" devices="tripinfo_56 routing_56" vType="DEFAULT_VEHTYPE" speedFactor="0.90" vaporized=""/>
    <tripinfo id="85" depart="425.00" departLane="236157091#1_0" departPos="5.10" departSpeed="0.00" departDelay="0.00" arrival="506.00" arrivalLane="1051441730#0_1" arrivalPos="27.30" arrivalSpeed="22.03" duration="81.00" routeLength="671.98" waitingTime="16.00" waitingCount="1" stopTime="0.00" timeLoss="38.48" rerouteNo="1" devices="tripinfo_85 routing_85" vType="DEFAULT_VEHTYPE" speedFactor="0.98" vaporized=""/>
    <tripinfo id="44" depart="220.00" departLane="-24090845#11_0" departPos="5.10" departSpeed="0.00" departDelay="0.00" arrival="509.00" arrivalLane="1362586127_0" arrivalPos="44.35" arrivalSpeed="19.61" duration="289.00" routeLength="638.79" waitingTime="212.00" waitingCount="6" stopTime="0.00" timeLoss="264.14" rerouteNo="1" devices="tripinfo_44 routing_44" vType="DEFAULT_VEHTYPE" speedFactor="1.04" vaporized=""/>
    <tripinfo id="65" depart="325.00" departLane="24091488#0_0" departPos="0.20" departSpeed="0.00" departDelay="0.00" arrival="511.00" arrivalLane="316762110#1_0" arrivalPos="32.23" arrivalSpeed="11.97" duration="186.00" routeLength="699.58" waitingTime="115.00" waitingCount="4" stopTime="0.00" timeLoss="153.22" rerouteNo="1" devices="tripinfo_65 routing_65" vType="DEFAULT_VEHTYPE" speedFactor="0.88" vaporized=""/>
    <tripinfo id="51" depart="255.00" departLane="24613631#0_0" departPos="0.20" departSpeed="0.00" departDelay="0.00" arrival="545.00" arrivalLane="-59667619#5_0" arrivalPos="18.60" arrivalSpeed="8.81" duration="290.00" routeLength="597.84" waitingTime="207.00" waitingCount="8" stopTime="0.00" timeLoss="269.96" rerouteNo="1" devices="tripinfo_51 routing_51" vType="DEFAULT_VEHTYPE" speedFactor="1.17" vaporized=""/>
    <tripinfo id="30" depart="150.00" departLane="519223973#1_0" departPos="0.20" departSpeed="0.00" departDelay="0.00" arrival="549.00" arrivalLane="435724112#1_0" arrivalPos="55.40" arrivalSpeed="15.71" duration="399.00" routeLength="868.97" waitingTime="299.00" waitingCount="9" stopTime="0.00" timeLoss="370.63" rerouteNo="1" devices="tripinfo_30 routing_30" vType="DEFAULT_VEHTYPE" speedFactor="1.18" vaporized=""/>
    <tripinfo id="87" depart="435.00" departLane="23825858#0_0" departPos="5.10" departSpeed="0.00" departDelay="0.00" arrival="550.00" arrivalLane="59667608_0" arrivalPos="0.20" arrivalSpeed="9.72" duration="115.00" routeLength="516.75" waitingTime="60.00" waitingCount="2" stopTime="0.00" timeLoss="86.69" rerouteNo="1" devices="tripinfo_87 routing_87" vType="DEFAULT_VEHTYPE" speedFactor="1.04" vaporized=""/>
    <tripinfo id="28" depart="140.00" departLane="973275640#1_0" departPos="0.11" departSpeed="0.00" departDelay="0.00" arrival="552.00" arrivalLane="433783096#1_2" arrivalPos="0.20" arrivalSpeed="19.33" duration="412.00" routeLength="714.81" waitingTime="325.00" waitingCount="7" stopTime="0.00" timeLoss="385.77" rerouteNo="1" devices="tripinfo_28 routing_28" vType="DEFAULT_VEHTYPE" speedFactor="1.13" vaporized=""/>
    <tripinfo id="101" depart="505.00" departLane="313874093#1_0" departPos="5.10" departSpeed="0.00" departDelay="0.00" arrival="553.00" arrivalLane="435724088#0_0" arrivalPos="18.47" arrivalSpeed="24.29" duration="48.00" routeLength="464.43" waitingTime="5.00" waitingCount="1" stopTime="0.00" timeLoss="21.49" rerouteNo="1" devices="tripinfo_101 routing_101" vType="DEFAULT_VEHTYPE" speedFactor="0.96" vaporized=""/>
    <tripinfo id="74" depart="370.00" departLane="1049318468#1_0" departPos="5.10" departSpeed="0.00" departDelay="0.00" arrival="555.00" arrivalLane="433784884#9_0" arrivalPos="44.91" arrivalSpeed="26.02" duration="185.00" routeLength="824.35" waitingTime="97.00" waitingCount="3" stopTime="0.00" timeLoss="152.99" rerouteNo="1" devices="tripinfo_74 routing_74" vType="DEFAULT_VEHTYPE" speedFactor="0.96" vaporized=""/>