<?xml version="1.0" encoding="UTF-8"?>

<!-- generated on 2026-03-24T17:54:38.550743+00:00 by Eclipse SUMO GUI 1.26.0
<sumoConfiguration xmlns:xsi="http://www.w3.org/2001/XMLSchema-instance" xsi:noNamespaceSchemaLocation="http://sumo.dlr.de/xsd/sumoConfiguration.xsd">

    <input>
        <net-file value="simulation/configs/../network/chicago.net.xml"/>
        <route-files value="simulation/configs/../routes/chicago_medium.rou.xml"/>
    </input>

    <output>
        <tripinfo-output value="simulation/configs/../../results/tripinfo_ai_medium.xml"/>
        <edgedata-output value="simulation/configs/../../results/edge_data_ai_medium.xml"/>
    </output>

    <time>
        <begin value="0"/>
        <end value="3600"/>
    </time>

    <traci_server>
        <remote-port value="59409"/>
    </traci_server>

</sumoConfiguration>
-->

<tripinfos xmlns:xsi="http://www.w3.org/2001/XMLSchema-instance" xsi:noNamespaceSchemaLocation="http://sumo.dlr.de/xsd/tripinfo_file.xsd">
    <tripinfo id="18" depart="36.00" departLane="435724011#1_0" departPos="0.20" departSpeed="0.00" departDelay="0.00" arrival="92.00" arrivalLane="-236157125#4_2" arrivalPos="0.20" arrivalSpeed="12.00" duration="56.00" routeLength="155.98" waitingTime="34.00" waitingCount="3" stopTime="0.00" timeLoss="41.38" rerouteNo="1" devices="tripinfo_18 routing_18" vType="DEFAULT_VEHTYPE" speedFactor="0.94" vaporized=""/>
    <tripinfo id="17" depart="34.00" departLane="59410419#1_0" departPos="5.10" departSpeed="0.00" departDelay="0.00" arrival="100.00" arrivalLane="316764838#0_1" arrivalPos="0.20" arrivalSpeed="7.07" duration="66.00" routeLength="378.70" waitingTime="26.00" waitingCount="1" stopTime="0.00" timeLoss="48.54" rerouteNo="1" devices="tripinfo_17 routing_17" vType="DEFAULT_VEHTYPE" speedFactor="0.94" vaporized=""/>
    <tripinfo id="8" depart="16.00" departLane="1033716708#0_0" departPos="0.20" departSpeed="0.00" departDelay="0.00" arrival="117.00" arrivalLane="319345472#0_0" arrivalPos="43.93" arrivalSpeed="15.99" duration="101.00" routeLength="519.34" waitingTime="48.00" waitingCount="1" stopTime="0.00" timeLoss="75.71" rerouteNo="1" devices="tripinfo_8 routing_8" vType="DEFAULT_VEHTYPE" speedFactor="0.94" vaporized=""/>
    <tripinfo id="60" depart="120.00" departLane="1106630540#2_0" departPos="5.10" departSpeed="0.00" departDelay="0.00" arrival="139.00" arrivalLane="-24071819#0_0" arrivalPos="0.20" arrivalSpeed="12.72" duration="19.00" routeLength="161.06" waitingTime="0.00" waitingCount="0" stopTime="0.00" timeLoss="11.36" rerouteNo="1" devices="tripinfo_60 routing_60" vType="DEFAULT_VEHTYPE" speedFactor="1.08" vaporized=""/>
    <tripinfo id="26" depart="52.00" departLane="-519223975_0" departPos="0.20" departSpeed="0.00" departDelay="0.00" arrival="142.00" arrivalLane="435724069#1_0" arrivalPos="30.47" arrivalSpeed="10.92" duration="90.00" routeLength="128.41" waitingTime="65.00" waitingCount="2" stopTime="0.00" timeLoss="79.07" rerouteNo="1" devices="tripinfo_26 routing_26" vType="DEFAULT_VEHTYPE" speedFactor="0.92" vaporized=""/>
    <tripinfo id="10" depart="20.00" departLane="4476711#3_0" departPos="0.20" departSpeed="0.00" departDelay="0.00" arrival="143.00" arrivalLane="435724011#0_0" arrivalPos="40.46" arrivalSpeed="19.57" duration="123.00" routeLength="820.73" waitingTime="55.00" waitingCount="2" stopTime="0.00" timeLoss="89.55" rerouteNo="1" devices="tripinfo_10 routing_10" vType="DEFAULT_VEHTYPE" speedFactor="1.09" vaporized=""/>
    <tripinfo id="41" depart="82.00" departLane="-292339723#2_0" departPos="5.10" departSpeed="0.00" departDelay="0.00" arrival="145.00" arrivalLane="-23825858#0_0" arrivalPos="17.42" arrivalSpeed="18.63" duration="63.00" routeLength="147.20" waitingTime="42.00" waitingCount="1" stopTime="0.00" timeLoss="56.96" rerouteNo="1" devices="tripinfo_41 routing_41" vType="DEFAULT_VEHTYPE" speedFactor="0.96" vaporized=""/>
    <tripinfo id="19" depart="38.00" departLane="1038761526#0_0" departPos="5.10" departSpeed="0.00" departDelay="0.00" arrival="146.00" arrivalLane="1067743360#3_0" arrivalPos="0.20" arrivalSpeed="18.25" duration="108.00" routeLength="505.02" waitingTime="61.00" waitingCount="2" stopTime="0.00" timeLoss="90.28" rerouteNo="1" devices="tripinfo_19 routing_19" vType="DEFAULT_VEHTYPE" speedFactor="1.16" vaporized=""/>
    <tripinfo id="2" depart="4.00" departLane="435724069#1_0" departPos="5.10" departSpeed="0.00" departDelay="0.00" arrival="151.00" arrivalLane="433784889#3_1" arrivalPos="0.20" arrivalSpeed="27.83" duration="147.00" routeLength="540.14" waitingTime="87.00" waitingCount="3" stopTime="0.00" timeLoss="125.23" rerouteNo="1" devices="tripinfo_2 routing_2" vType="DEFAULT_VEHTYPE" speedFactor="1.01" vaporized=""/>
    <tripinfo id="6" depart="12.00" departLane="-1287862797_0" departPos="0.20" departSpeed="0.00" departDelay="0.00" arrival="151.00" arrivalLane="-833048839#3_0" arrivalPos="1.19" arrivalSpeed="14.41" duration="139.00" routeLength="430.60" waitingTime="93.00" waitingCount="3" stopTime="0.00" timeLoss="123.76" rerouteNo="1" devices="tripinfo_6 routing_6" vType="DEFAULT_VEHTYPE" speedFactor="1.05" vaporized=""/>
    <tripinfo id="14" depart="28.00" departLane="4476711#4_0" departPos="0.20" departSpeed="0.00" departDelay="0.00" arrival="154.00" arrivalLane="435724069#1_0" arrivalPos="30.47" arrivalSpeed="13.51" duration="126.00" routeLength="506.52" waitingTime="67.00" waitingCount="2" stopTime="0.00" timeLoss="101.26" rerouteNo="1" devices="tripinfo_14 routing_14" vType="DEFAULT_VEHTYPE" speedFactor="0.99" vaporized=""/>
    <tripinfo id="1" depart="2.00" departLane="1051441727#3_1" departPos="5.10" departSpeed="0.00" departDelay="0.00" arrival="183.00" arrivalLane="1038761526#1_1" arrivalPos="0.20" arrivalSpeed="22.51" duration="181.00" routeLength="678.16" waitingTime="103.00" waitingCount="4" stopTime="0.00" timeLoss="151.53" rerouteNo="1" devices="tripinfo_1 routing_1" vType="DEFAULT_VEHTYPE" speedFactor="0.94" vaporized=""/>
    <tripinfo id="64" depart="128.00" departLane="435724093#0_0" departPos="0.20" departSpeed="0.00" departDelay="0.00" arrival="184.00" arrivalLane="-433784890#0_0" arrivalPos="17.79" arrivalSpeed="9.62" duration="56.00" routeLength="277.82" waitingTime="19.00" waitingCount="2" stopTime="0.00" timeLoss="41.43" rerouteNo="1" devices="tripinfo_64 routing_64" vType="DEFAULT_VEHTYPE" speedFactor="0.94" vaporized=""/>
    <tripinfo id="15" depart="30.00" departLane="134319745#4_0" departPos="0.20" departSpeed="0.00" departDelay="0.00" arrival="187.00" arrivalLane="316762110#3_0" arrivalPos="27.81" arrivalSpeed="20.44" duration="157.00" routeLength="746.12" waitingTime="79.00" waitingCount="3" stopTime="0.00" timeLoss="123.06" rerouteNo="1" devices="tripinfo_15 routing_15" vType="DEFAULT_VEHTYPE" speedFactor="0.93" vaporized=""/>
    <tripinfo id="33" depart="66.00" departLane="-973275640#0_0" departPos="5.10" departSpeed="0.00" departDelay="0.00" arrival="189.00" arrivalLane="833035173#2_1" arrivalPos="8.00" arrivalSpeed="22.51" duration="123.00" routeLength="964.37" waitingTime="25.00" waitingCount="2" stopTime="0.00" timeLoss="84.23" rerouteNo="1" devices="tripinfo_33 routing_33" vType="DEFAULT_VEHTYPE" speedFactor="1.17" vaporized=""/>
    <tripinfo id="24" depart="48.00" departLane="1051441726#4_0" departPos="0.20" departSpeed="0.00" departDelay="0.00" arrival="191.00" arrivalLane="805924007#0_0" arrivalPos="55.32" arrivalSpeed="18.93" duration="143.00" routeLength="912.47" waitingTime="59.00" waitingCount="2" stopTime="0.00" timeLoss="95.67" rerouteNo="1" devices="tripinfo_24 routing_24" vType="DEFAULT_VEHTYPE" speedFactor="0.83" vaporized=""/>
    <tripinfo id="31" depart="62.00" departLane="1038761526#1_0" departPos="0.20" departSpeed="0.00" departDelay="0.00" arrival="192.00" arrivalLane="-134319745#1_0" arrivalPos="54.20" arrivalSpeed="25.30" duration="130.00" routeLength="515.94" waitingTime="82.00" waitingCount="2" stopTime="0.00" timeLoss="109.86" rerouteNo="1" devices="tripinfo_31 routing_31" vType="DEFAULT_VEHTYPE" speedFactor="1.15" vaporized=""/>
    <tripinfo id="3" depart="6.00" departLane="615645277#0_0" departPos="0.83" departSpeed="0.00" departDelay="0.00" arrival="194.00" arrivalLane="-24102433#4_0" arrivalPos="0.20" arrivalSpeed="5.78" duration="188.00" routeLength="952.56" waitingTime="101.00" waitingCount="4" stopTime="0.00" timeLoss="149.33" rerouteNo="1" devices="tripinfo_3 routing_3" vType="DEFAULT_VEHTYPE" speedFactor="1.08" vaporized=""/>
    <tripinfo id="9" depart="18.00" departLane="4476711#6_0" departPos="5.10" departSpeed="0.00" departDelay="0.00" arrival="195.00" arrivalLane="-1106630540#1_0" arrivalPos="2.20" arrivalSpeed="18.03" duration="177.00" routeLength="567.43" waitingTime="108.00" waitingCount="4" stopTime="0.00" timeLoss="147.72" rerouteNo="1" devices="tripinfo_9 routing_9" vType="DEFAULT_VEHTYPE" speedFactor="0.86" vaporized=""/>
    <tripinfo id="70" depart="140.00" departLane="1191328879#3_0" departPos="5.10" departSpeed="0.00" departDelay="0.00" arrival="195.00" arrivalLane="319345471#1_0" arrivalPos="47.44" arrivalSpeed="22.84" duration="55.00" routeLength="544.80" waitingTime="3.00" waitingCount="1" stopTime="0.00" timeLoss="31.74" rerouteNo="1" devices="tripinfo_70 routing_70" vType="DEFAULT_VEHTYPE" speedFactor="1.02" vaporized=""/>
    <tripinfo id="5" depart="10.00" departLane="1028907899#1_0" departPos="0.20" departSpeed="0.00" departDelay="0.00" arrival="199.00" arrivalLane="292339723#1_0" arrivalPos="20.67" arrivalSpeed="10.50" duration="189.00" routeLength="716.45" waitingTime="114.00" waitingCount="4" stopTime="0.00" timeLoss="154.50" rerouteNo="1" devices="tripinfo_5 routing_5" vType="DEFAULT_VEHTYPE" speedFactor="0.83" vaporized=""/>
    <tripinfo id="49" depart="98.00" departLane="24071819#1_0" departPos="5.10" departSpeed="0.00" departDelay="0.00" arrival="201.00" arrivalLane="841064474#2_3" arrivalPos="0.30" arrivalSpeed="16.73" duration="103.00" routeLength="518.58" waitingTime="43.00" waitingCount="3" stopTime="0.00" timeLoss="76.86" rerouteNo="1" devices="tripinfo_49 routing_49" vType="DEFAULT_VEHTYPE" speedFactor="0.85" vaporized=""/>
    <tripinfo id="4" depart="8.00" departLane="236157091#1_0" departPos="5.10" departSpeed="0.00" departDelay="0.00" arrival="203.00" arrivalLane="-1287862806_0" arrivalPos="0.20" arrivalSpeed="13.33" duration="195.00" routeLength="695.69" waitingTime="107.00" waitingCount="5" stopTime="0.00" timeLoss="163.77" rerouteNo="1" devices="tripinfo_4 routing_4" vType="DEFAULT_VEHTYPE" speedFactor="1.03" vaporized=""/>
    <tripinfo id="67" depart="134.00" departLane="313874092_0" departPos="5.10" departSpeed="0.00" departDelay="0.00" arrival="215.00" arrivalLane="435724069#1_1" arrivalPos="30.47" arrivalSpeed="11.40" duration="81.00" routeLength="479.14" waitingTime="33.00" waitingCount="1" stopTime="0.00" timeLoss="57.20" rerouteNo="1" devices="tripinfo_67 routing_67" vType="DEFAULT_VEHTYPE" speedFactor="0.91" vaporized=""/>
    <tripinfo id="46" depart="92.00" departLane="-1127665632#0_0" departPos="0.20" departSpeed="0.00" departDelay="0.00" arrival="227.00" arrivalLane="435724044#1_1" arrivalPos="17.37" arrivalSpeed="26.66" duration="135.00" routeLength="740.57" waitingTime="73.00" waitingCount="2" stopTime="0.00" timeLoss="107.66" rerouteNo="1" devices="tripinfo_46 routing_46" vType="DEFAULT_VEHTYPE" speedFactor="1.00" vaporized=""/>
    <tripinfo id="117" depart="234.00" departLane="59673547#1_0" departPos="0.20" departSpeed="0.00" departDelay="0.00" arrival="235.00" arrivalLane="59673547#1_0" arrivalPos="0.20" arrivalSpeed="1.43" duration="1.00" routeLength="0.00" waitingTime="0.00" waitingCount="0" stopTime="0.00" timeLoss="0.89" rerouteNo="1" devices="tripinfo_117 routing_117" vType="DEFAULT_VEHTYPE" speedFactor="1.00" vaporized=""/>
    <tripinfo id="43" depart="86.00" departLane="445290295#0_0" departPos="0.20" departSpeed="0.00" departDelay="0.00" arrival="253.00" arrivalLane="236157423#0_0" arrivalPos="65.39" arrivalSpeed="13.30" duration="167.00" routeLength="914.83" waitingTime="68.00" waitingCount="4" stopTime="0.00" timeLoss="123.31" rerouteNo="1" devices="tripinfo_43 routing_43" vType="DEFAULT_VEHTYPE" speedFactor="1.04" vaporized=""/>
    <tripinfo id="58" depart="116.00" departLane="-1194188298#1_0" departPos="5.10" departSpeed="0.00" departDelay="0.00" arrival="255.00" arrivalLane="793372646#2_1" arrivalPos="0.20" arrivalSpeed="12.12" duration="139.00" routeLength="544.32" waitingTime="66.00" waitingCount="4" stopTime="0.00" timeLoss="116.24" rerouteNo="1" devices="tripinfo_58 routing_58" vType="DEFAULT_VEHTYPE" speedFactor="1.02" vaporized=""/>
    <tripinfo id="113" depart="226.00" departLane="-24090845#7_0" departPos="0.20" departSpeed="0.00" departDelay="0.00" arrival="256.00" arrivalLane="24090845#3_0" arrivalPos="42.57" arrivalSpeed="21.59" duration="30.00" routeLength="299.81" waitingTime="0.00" waitingCount="0" stopTime="0.00" timeLoss="14.89" rerouteNo="1" devices="tripinfo_113 routing_113" vType="DEFAULT_VEHTYPE" speedFactor="1.01" vaporized=""/>
    <tripinfo id="32" depart="64.00" departLane="1127665632#2_0" departPos="5.10" departSpeed="0.00" departDelay="0.00" arrival="259.00" arrivalLane="1051441727#3_1" arrivalPos="41.60" arrivalSpeed="19.39" duration="195.00" routeLength="1166.62" waitingTime="94.00" waitingCount="3" stopTime="0.00" timeLoss="147.07" rerouteNo="1" devices="tripinfo_32 routing_32" vType="DEFAULT_VEHTYPE" speedFactor="1.01" vaporized=""/>
    <tripinfo id="101" depart="202.00" departLane="313874093#1_0" departPos="5.10" departSpeed="0.00" departDelay="0.00" arrival="259.00" arrivalLane="435724088#0_0" arrivalPos="18.47" arrivalSpeed="21.68" duration="57.00" routeLength="464.43" waitingTime="10.00" waitingCount="1" stopTime="0.00" timeLoss="30.78" rerouteNo="1" devices="tripinfo_101 routing_101" vType="DEFAULT_VEHTYPE" speedFactor="0.96" vaporized=""/>
    <tripinfo id="21" depart="42.00" departLane="-294712587_0" departPos="0.20" departSpeed="0.00" departDelay="0.00" arrival="260.00" arrivalLane="1051441730#0_0" arrivalPos="27.30" arrivalSpeed="21.01" duration="218.00" routeLength="1251.15" waitingTime="107.00" waitingCount="4" stopTime="0.00" timeLoss="169.61" rerouteNo="1" devices="tripinfo_21 routing_21" vType="DEFAULT_VEHTYPE" speedFactor="1.01" vaporized=""/>
    <tripinfo id="53" depart="106.00" departLane="1067743360#6_0" departPos="0.24" departSpeed="0.00" departDelay="0.00" arrival="260.00" arrivalLane="433783095#2_1" arrivalPos="0.20" arrivalSpeed="22.10" duration="154.00" routeLength="581.43" waitingTime="87.00" waitingCount="3" stopTime="0.00" timeLoss="131.81" rerouteNo="1" devices="tripinfo_53 routing_53" vType="DEFAULT_VEHTYPE" speedFactor="1.10" vaporized=""/>
    <tripinfo id="69" depart="138.00" departLane="23700520#4_0" departPos="5.10" departSpeed="0.00" departDelay="0.00" arrival="260.00" arrivalLane="294582657#5_1" arrivalPos="36.75" arrivalSpeed="20.88" duration="122.00" routeLength="370.96" waitingTime="79.00" waitingCount="2" stopTime="0.00" timeLoss="102.07" rerouteNo="1" devices="tripinfo_69 routing_69" vType="DEFAULT_VEHTYPE" speedFactor="1.02" vaporized=""/>
    <tripinfo id="73" depart="146.00" departLane="59407132#3_0" departPos="5.10" departSpeed="0.00" departDelay="0.00" arrival="269.00" arrivalLane="-24090845#6_0" arrivalPos="18.89" arrivalSpeed="21.67" duration="123.00" routeLength="360.84" waitingTime="79.00" waitingCount="4" stopTime="0.00" timeLoss="104.38" rerouteNo="1" devices="tripinfo_73 routing_73" vType="DEFAULT_VEHTYPE" speedFactor="1.06" vaporized=""/>
    <tripinfo id="72" depart="144.00" departLane="-24090845#5_0" departPos="0.38" departSpeed="0.00" departDelay="0.00" arrival="270.00" arrivalLane="433783093#0_0" arrivalPos="0.20" arrivalSpeed="25.51" duration="126.00" routeLength="500.54" waitingTime="66.00" waitingCount="5" stopTime="0.00" timeLoss="103.36" rerouteNo="1" devices="tripinfo_72 routing_72" vType="DEFAULT_VEHTYPE" speedFactor="0.94" vaporized=""/>
    <tripinfo id="103" depart="206.00" departLane="24952967_0" departPos="0.20" departSpeed="0.00" departDelay="0.00" arrival="274.00" arrivalLane="59407132#0_1" arrivalPos="0.20" arrivalSpeed="8.04" duration="68.00" routeLength="677.04" waitingTime="6.00" waitingCount="1" stopTime="0.00" timeLoss="36.03" rerouteNo="1" devices="tripinfo_103 routing_103" vType="DEFAULT_VEHTYPE" speedFactor="0.95" vaporized=""/>
    <tripinfo id="71" depart="142.00" departLane="1049318466#0_0" departPos="5.10" departSpeed="0.00" departDelay="0.00" arrival="277.00" arrivalLane="1035941401#1_2" arrivalPos="0.20" arrivalSpeed="23.61" duration="135.00" routeLength="660.82" waitingTime="71.00" waitingCount="2" stopTime="0.00" timeLoss="108.98" rerouteNo="1" devices="tripinfo_71 routing_71" vType="DEFAULT_VEHTYPE" speedFactor="0.97" vaporized=""/>
    <tripinfo id="39" depart="78.00" departLane="1449477173#4_0" departPos="5.10" departSpeed="0.00" departDelay="0.00" arrival="280.00" arrivalLane="1035941401#0_2" arrivalPos="53.95" arrivalSpeed="21.68" duration="202.00" routeLength="802.61" waitingTime="122.00" waitingCount="4" stopTime="0.00" timeLoss="167.80" rerouteNo="1" devices="tripinfo_39 routing_39" vType="DEFAULT_VEHTYPE" speedFactor="0.90" vaporized=""/>
    <tripinfo id="20" depart="40.00" departLane="-24091488#3_0" departPos="5.10" departSpeed="0.00" departDelay="0.00" arrival="298.00" arrivalLane="1049318468#2_0" arrivalPos="0.20" arrivalSpeed="17.87" duration="258.00" routeLength="1243.70" waitingTime="135.00" waitingCount="5" stopTime="0.00" timeLoss="208.31" rerouteNo="1" devices="tripinfo_20 routing_20" vType="DEFAULT_VEHTYPE" speedFactor="1.02" vaporized=""/>
    <tripinfo id="37" depart="74.00" departLane="316762111#0_0" departPos="0.20" departSpeed="0.00" departDelay="0.00" arrival="298.00" arrivalLane="1051441726#6_0" arrivalPos="20.64" arrivalSpeed="11.95" duration="224.00" routeLength="1310.45" waitingTime="102.00" waitingCount="4" stopTime="0.00" timeLoss="181.83" rerouteNo="1" devices="tripinfo_37 routing_37" vType="DEFAULT_VEHTYPE" speedFactor="1.18" vaporized=""/>
    <tripinfo id="106" depart="212.00" departLane="319345471#1_0" departPos="5.10" departSpeed="0.00" departDelay="0.00" arrival="298.00" arrivalLane="433784889#2_1" arrivalPos="24.28" arrivalSpeed="16.87" duration="86.00" routeLength="509.48" waitingTime="31.00" waitingCount="2" stopTime="0.00" timeLoss="64.49" rerouteNo="1" devices="tripinfo_106 routing_106" vType="DEFAULT_VEHTYPE" speedFactor="1.01" vaporized=""/>
    <tripinfo id="27" depart="54.00" departLane="-445290295#2_0" departPos="0.20" departSpeed="0.00" departDelay="0.00" arrival="301.00" arrivalLane="1351951431#6_1" arrivalPos="48.17" arrivalSpeed="22.69" duration="247.00" routeLength="898.40" waitingTime="164.00" waitingCount="5" stopTime="0.00" timeLoss="210.39" rerouteNo="1" devices="tripinfo_27 routing_27" vType="DEFAULT_VEHTYPE" speedFactor="0.95" vaporized=""/>
    <tripinfo id="112" depart="224.00" departLane="1127665632#2_0" departPos="5.10" departSpeed="0.00" departDelay="0.00" arrival="304.00" arrivalLane="435724090#0_0" arrivalPos="18.34" arrivalSpeed="10.94" duration="80.00" routeLength="346.06" waitingTime="36.00" waitingCount="2" stopTime="0.00" timeLoss="66.08" rerouteNo="1" devices="tripinfo_112 routing_112" vType="DEFAULT_VEHTYPE" speedFactor="1.10" vaporized=""/>
    <tripinfo id="50" depart="100.00" departLane="59670543#1_0" departPos="5.10" departSpeed="0.00" departDelay="0.00" arrival="305.00" arrivalLane="1051441726#7_0" arrivalPos="49.39" arrivalSpeed="18.43" duration="205.00" routeLength="1154.21" waitingTime="82.00" waitingCount="3" stopTime="0.00" timeLoss="148.16" rerouteNo="1" devices="tripinfo_50 routing_50" vType="DEFAULT_VEHTYPE" speedFactor="0.85" vaporized=""/>
    <tripinfo id="68" depart="136.00" departLane="-833048839#0_0" departPos="5.10" departSpeed="0.00" departDelay="0.00" arrival="305.00" arrivalLane="1137122252#1_1" arrivalPos="0.20" arrivalSpeed="9.11" duration="169.00" routeLength="446.75" waitingTime="114.00" waitingCount="3" stopTime="0.00" timeLoss="152.31" rerouteNo="1" devices="tripinfo_68 routing_68" vType="DEFAULT_VEHTYPE" speedFactor="1.04" vaporized=""/>
    <tripinfo id="12" depart="24.00" departLane="906195085_0" departPos="5.10" departSpeed="0.00" departDelay="0.00" arrival="307.00" arrivalLane="1191329603_0" arrivalPos="0.20" arrivalSpeed="14.69" duration="283.00" routeLength="1385.90" waitingTime="137.00" waitingCount="6" stopTime="0.00" timeLoss="228.51" rerouteNo="1" devices="tripinfo_12 routing_12" vType="DEFAULT_VEHTYPE" speedFactor="1.05" vaporized=""/>
    <tripinfo id="85" depart="170.00" departLane="236157091#1_0" departPos="5.10" departSpeed="0.00" departDelay="0.00" arrival="312.00" arrivalLane="1051441730#0_1" arrivalPos="27.30" arrivalSpeed="22.12" duration="142.00" routeLength="671.98" waitingTime="77.00" waitingCount="2" stopTime="0.00" timeLoss="99.77" rerouteNo="1" devices="tripinfo_85 routing_85" vType="DEFAULT_VEHTYPE" speedFactor="0.98" vaporized=""/>
    <tripinfo id="56" depart="124.00" departLane="435724109#2_0" departPos="0.20" departSpeed="0.00" departDelay="12.00" arrival="313.00" arrivalLane="294839950#4_1" arrivalPos="0.20" arrivalSpeed="21.73" duration="189.00" routeLength="562.38" waitingTime="126.00" waitingCount="3" stopTime="0.00" timeLoss="163.22" rerouteNo="1" devices="tripinfo_56 routing_56" vType="DEFAULT_VEHTYPE" speedFactor="0.90" vaporized=""/>
    <tripinfo id="125" depart="250.00" departLane="-316762111#1_0" departPos="5.10" departSpeed="0.00" departDelay="0.00" arrival="316.00" arrivalLane="316762110#4_0" arrivalPos="26.58" arrivalSpeed="22.92" duration="66.00" routeLength="268.02" waitingTime="39.00" waitingCount="1" stopTime="0.00" timeLoss="56.05" rerouteNo="1" devices="tripinfo_125 routing_125" vType="DEFAULT_VEHTYPE" speedFactor="1.15" vaporized=""/>
    <tripinfo id="65" depart="130.00" departLane="24091488#0_0" departPos="0.20" departSpeed="0.00" departDelay="0.00" arrival="318.00" arrivalLane="316762110#1_0" arrivalPos="32.23" arrivalSpeed="12.76" duration="188.00" routeLength="699.58" waitingTime="117.00" waitingCount="4" stopTime="0.00" timeLoss="156.52" rerouteNo="1" devices="tripinfo_65 routing_65" vType="DEFAULT_VEHTYPE" speedFactor="0.88" vaporized=""/>
    <tripinfo id="52" depart="104.00" departLane="657718778#0_0" departPos="0.20" departSpeed="0.00" departDelay="0.00" arrival="319.00" arrivalLane="59667619#4_0" arrivalPos="23.14" arrivalSpeed="18.75" duration="215.00" routeLength="1068.91" waitingTime="104.00" waitingCount="6" stopTime="0.00" timeLoss="173.98" rerouteNo="1" devices="tripinfo_52 routing_52" vType="DEFAULT_VEHTYPE" speedFactor="1.02" vaporized=""/>
    <tripinfo id="34" depart="68.00" departLane="59670543#1_0" departPos="5.10" departSpeed="0.00" departDelay="0.00" arrival="320.00" arrivalLane="1190700428#0_0" arrivalPos="0.20" arrivalSpeed="5.37" duration="252.00" routeLength="1350.95" waitingTime="120.00" waitingCount="6" stopTime="0.00" timeLoss="196.80" rerouteNo="1" devices="tripinfo_34 routing_34" vType="DEFAULT_VEHTYPE" speedFactor="0.99" vaporized=""/>
    <tripinfo id="79" depart="158.00" departLane="-294712584#1_0" departPos="5.10" departSpeed="0.00" departDelay="0.00" arrival="335.00" arrivalLane="23700520#5_0" arrivalPos="0.20" arrivalSpeed="27.70" duration="177.00" routeLength="1148.14" waitingTime="87.00" waitingCount="3" stopTime="0.00" timeLoss="136.56" rerouteNo="1" devices="tripinfo_79 routing_79" vType="DEFAULT_VEHTYPE" speedFactor="1.09" vaporized=""/>
    <tripinfo id="36" depart="72.00" departLane="1051441726#2_0" departPos="5.10" departSpeed="0.00" departDelay="0.00" arrival="336.00" arrivalLane="1049318472#0_0" arrivalPos="27.12" arrivalSpeed="3.04" duration="264.00" routeLength="1353.01" waitingTime="137.00" waitingCount="5" stopTime="0.00" timeLoss="210.88" rerouteNo="1" devices="tripinfo_36 routing_36" vType="DEFAULT_VEHTYPE" speedFactor="0.97" vaporized=""/>
    <tripinfo id="91" depart="182.00" departLane="5263032#2_0" departPos="5.10" departSpeed="0.00" departDelay="0.00" arrival="343.00" arrivalLane="-519223973#1_1" arrivalPos="0.20" arrivalSpeed="2.92" duration="161.00" routeLength="565.74" waitingTime="95.00" waitingCount="3" stopTime="0.00" timeLoss="134.76" rerouteNo="1" devices="tripinfo_91 routing_91" vType="DEFAULT_VEHTYPE" speedFactor="0.89" vaporized=""/>
    <tripinfo id="16" depart="32.00" departLane="4630404#4_0" departPos="0.20" departSpeed="0.00" departDelay="0.00" arrival="348.00" arrivalLane="381820996#3_3" arrivalPos="0.20" arrivalSpeed="3.54" duration="316.00" routeLength="648.61" waitingTime="232.00" waitingCount="7" stopTime="0.00" timeLoss="286.23" rerouteNo="1" devices="tripinfo_16 routing_16" vType="DEFAULT_VEHTYPE" speedFactor="0.88" vaporized=""/>
    <tripinfo id="22" depart="44.00" departLane="433781990#0_0" departPos="5.10" departSpeed="0.00" departDelay="0.00" arrival="350.00" arrivalLane="134319745#0_0" arrivalPos="0.20" arrivalSpeed="5.32" duration="306.00" routeLength="550.92" waitingTime="231.00" waitingCount="6" stopTime="0.00" timeLoss="281.77" rerouteNo="1" devices="tripinfo_22 routing_22" vType="DEFAULT_VEHTYPE" speedFactor="0.97" vaporized=""/>
    <tripinfo id="110" depart="220.00" departLane="-833048839#3_0" departPos="1.19" departSpeed="0.00" departDelay="0.00" arrival="350.00" arrivalLane="435724041#0_0" arrivalPos="0.20" arrivalSpeed="8.81" duration="130.00" routeLength="637.73" waitingTime="65.00" waitingCount="3" stopTime="0.00" timeLoss="104.45" rerouteNo="1" devices="tripinfo_110 routing_110" vType="DEFAULT_VEHTYPE" speedFactor="0.93" vaporized=""/>
    <tripinfo id="141" depart="282.00" departLane="145846251#1_0" departPos="5.10" departSpeed="0.00" departDelay="0.00" arrival="354.00" arrivalLane="381820998#1_1" arrivalPos="0.20" arrivalSpeed="6.18" duration="72.00" routeLength="185.98" waitingTime="35.00" waitingCount="2" stopTime="0.00" timeLoss="66.07" rerouteNo="1" devices="tripinfo_141 routing_141" vType="DEFAULT_VEHTYPE" speedFactor="1.16" vaporized=""/>
    <tripinfo id="51" depart="102.00" departLane="24613631#0_0" departPos="0.20" departSpeed="0.00" departDelay="0.00" arrival="355.00" arrivalLane="-59667619#5_0" arrivalPos="18.60" arrivalSpeed="10.37" duration="253.00" routeLength="597.84" waitingTime="172.00" waitingCount="7" stopTime="0.00" timeLoss="232.56" rerouteNo="1" devices="tripinfo_51 routing_51" vType="DEFAULT_VEHTYPE" speedFactor="1.17" vaporized=""/>
    <tripinfo id="23" depart="46.00" departLane="1287862806_0" departPos="0.20" departSpeed="0.00" departDelay="0.00" arrival="356.00" arrivalLane="1002803297#1_2" arrivalPos="30.23" arrivalSpeed="12.11" duration="310.00" routeLength="922.77" waitingTime="221.00" waitingCount="6" stopTime="0.00" timeLoss="268.78" rerouteNo="1" devices="tripinfo_23 routing_23" vType="DEFAULT_VEHTYPE" speedFactor="0.89" vaporized=""/>
    <tripinfo id="54" depart="108.00" departLane="337681340#1_0" departPos="5.10" departSpeed="0.00" departDelay="0.00" arrival="358.00" arrivalLane="-435724099#1_0" arrivalPos="0.20" arrivalSpeed="6.57" duration="250.00" routeLength="781.29" waitingTime="163.00" waitingCount="5" stopTime="0.00" timeLoss="218.45" rerouteNo="1" devices="tripinfo_54 routing_54" vType="DEFAULT_VEHTYPE" speedFactor="1.00" vaporized=""/>
    <tripinfo id="44" depart="88.00" departLane="-24090845#11_0" departPos="5.10" departSpeed="0.00" departDelay="0.00" arrival="359.00" arrivalLane="1362586127_0" arrivalPos="44.35" arrivalSpeed="16.14" duration="271.00" routeLength="638.79" waitingTime="199.00" waitingCount="5" stopTime="0.00" timeLoss="245.27" rerouteNo="1" devices="tripinfo_44 routing_44" vType="DEFAULT_VEHTYPE" speedFactor="1.04" vaporized=""/>
    <tripinfo id="76" depart="152.00" departLane="805911051#0_0" departPos="5.10" departSpeed="0.00" departDelay="0.00" arrival="359.00" arrivalLane="316764836#0_3" arrivalPos="0.20" arrivalSpeed="8.12" duration="207.00" routeLength="971.27" waitingTime="122.00" waitingCount="4" stopTime="0.00" timeLoss="171.25" rerouteNo="1" devices="tripinfo_76 routing_76" vType="DEFAULT_VEHTYPE" speedFactor="1.03" vaporized=""/>
    <tripinfo id="108" depart="216.00" departLane="319345471#0_0" departPos="0.10" departSpeed="0.00" departDelay="0.00" arrival="359.00" arrivalLane="381820998#0_1" arrivalPos="0.20" arrivalSpeed="5.90" duration="143.00" routeLength="577.06" waitingTime="62.00" waitingCount="3" stopTime="0.00" timeLoss="120.43" rerouteNo="1" devices="tripinfo_108 routing_108" vType="DEFAULT_VEHTYPE" speedFactor="1.06" vaporized=""/>
    <tripinfo id="96" depart="192.00" departLane="24075632#0_0" departPos="0.20" departSpeed="0.00" departDelay="0.00" arrival="360.00" arrivalLane="236157423#1_0" arrivalPos="43.79" arrivalSpeed="13.21" duration="168.00" routeLength="958.85" waitingTime="76.00" waitingCount="4" stopTime="0.00" timeLoss="117.31" rerouteNo="1" devices="tripinfo_96 routing_96" vType="DEFAULT_VEHTYPE" speedFactor="1.01" vaporized=""/>
    <tripinfo id="104" depart="208.00" departLane="-435724103#0_0" departPos="0.20" departSpeed="0.00" departDelay="0.00" arrival="360.00" arrivalLane="917825059#2_0" arrivalPos="49.31" arrivalSpeed="18.85" duration="152.00" routeLength="1091.10" waitingTime="49.00" waitingCount="4" stopTime="0.00" timeLoss="103.45" rerouteNo="1" devices="tripinfo_104 routing_104" vType="DEFAULT_VEHTYPE" speedFactor="0.89" vaporized=""/>
    <tripinfo id="129" depart="258.00" departLane="-1049318473#1_0" departPos="5.10" departSpeed="0.00" departDelay="0.00" arrival="360.00" arrivalLane="435724109#1_1" arrivalPos="59.81" arrivalSpeed="16.57" duration="102.00" routeLength="472.20" waitingTime="50.00" waitingCount="2" stopTime="0.00" timeLoss="80.85" rerouteNo="1" devices="tripinfo_129 routing_129" vType="DEFAULT_VEHTYPE" speedFactor="1.01" vaporized=""/>