<?xml version="1.0" encoding="UTF-8"?>

<!-- generated on 2026-03-24T16:34:16.888154+00:00 by Eclipse SUMO GUI 1.26.0
<sumoConfiguration xmlns:xsi="http://www.w3.org/2001/XMLSchema-instance" xsi:noNamespaceSchemaLocation="http://sumo.dlr.de/xsd/sumoConfiguration.xsd">

    <input>
        <net-file value="simulation/configs/../network/chicago.net.xml"/>
        <route-files value="simulation/configs/../routes/chicago_medium.rou.xml"/>
    </input>

    <output>
        <tripinfo-output value="simulation/configs/../../results/tripinfo_ai.xml"/>
        <edgedata-output value="simulation/configs/../../results/edge_data_ai.xml"/>
    </output>

    <time>
        <begin value="0"/>
        <end value="3600"/>
    </time>

    <traci_server>
        <remote-port value="57623"/>
    </traci_server>

</sumoConfiguration>
-->

<tripinfos xmlns:xsi="http://www.w3.org/2001/XMLSchema-instance" xsi:noNamespaceSchemaLocation="http://sumo.dlr.de/xsd/tripinfo_file.xsd">
    <tripinfo id="2" depart="4.00" departLane="435724069#1_0" departPos="5.10" departSpeed="0.00" departDelay="0.00" arrival="59.00" arrivalLane="433784889#3_1" arrivalPos="0.20" arrivalSpeed="28.03" duration="55.00" routeLength="540.14" waitingTime="6.00" waitingCount="1" stopTime="0.00" timeLoss="32.79" rerouteNo="1" devices="tripinfo_2 routing_2" vType="DEFAULT_VEHTYPE" speedFactor="1.01" vaporized=""/>
    <tripinfo id="19" depart="38.00" departLane="1038761526#0_0" departPos="5.10" departSpeed="0.00" departDelay="0.00" arrival="79.00" arrivalLane="1067743360#3_0" arrivalPos="0.20" arrivalSpeed="19.05" duration="41.00" routeLength="505.02" waitingTime="0.00" waitingCount="0" stopTime="0.00" timeLoss="22.46" rerouteNo="1" devices="tripinfo_19 routing_19" vType="DEFAULT_VEHTYPE" speedFactor="1.16" vaporized=""/>
    <tripinfo id="17" depart="34.00" departLane="59410419#1_0" departPos="5.10" departSpeed="0.00" departDelay="0.00" arrival="103.00" arrivalLane="316764838#0_1" arrivalPos="0.20" arrivalSpeed="7.81" duration="69.00" routeLength="378.70" waitingTime="30.00" waitingCount="1" stopTime="0.00" timeLoss="51.47" rerouteNo="1" devices="tripinfo_17 routing_17" vType="DEFAULT_VEHTYPE" speedFactor="0.94" vaporized=""/>
    <tripinfo id="4" depart="8.00" departLane="236157091#1_0" departPos="5.10" departSpeed="0.00" departDelay="0.00" arrival="107.00" arrivalLane="-1287862806_0" arrivalPos="0.20" arrivalSpeed="13.38" duration="99.00" routeLength="695.69" waitingTime="30.00" waitingCount="2" stopTime="0.00" timeLoss="67.67" rerouteNo="1" devices="tripinfo_4 routing_4" vType="DEFAULT_VEHTYPE" speedFactor="1.03" vaporized=""/>
    <tripinfo id="8" depart="16.00" departLane="1033716708#0_0" departPos="0.20" departSpeed="0.00" departDelay="0.00" arrival="109.00" arrivalLane="319345472#0_0" arrivalPos="43.93" arrivalSpeed="16.94" duration="93.00" routeLength="519.34" waitingTime="38.00" waitingCount="1" stopTime="0.00" timeLoss="66.65" rerouteNo="1" devices="tripinfo_8 routing_8" vType="DEFAULT_VEHTYPE" speedFactor="0.94" vaporized=""/>
    <tripinfo id="18" depart="36.00" departLane="435724011#1_0" departPos="0.20" departSpeed="0.00" departDelay="0.00" arrival="109.00" arrivalLane="-236157125#4_2" arrivalPos="0.20" arrivalSpeed="11.44" duration="73.00" routeLength="155.98" waitingTime="50.00" waitingCount="3" stopTime="0.00" timeLoss="59.20" rerouteNo="1" devices="tripinfo_18 routing_18" vType="DEFAULT_VEHTYPE" speedFactor="0.94" vaporized=""/>
    <tripinfo id="41" depart="82.00" departLane="-292339723#2_0" departPos="5.10" departSpeed="0.00" departDelay="0.00" arrival="130.00" arrivalLane="-23825858#0_0" arrivalPos="17.42" arrivalSpeed="21.18" duration="48.00" routeLength="147.20" waitingTime="28.00" waitingCount="1" stopTime="0.00" timeLoss="41.68" rerouteNo="1" devices="tripinfo_41 routing_41" vType="DEFAULT_VEHTYPE" speedFactor="0.96" vaporized=""/>
    <tripinfo id="60" depart="120.00" departLane="1106630540#2_0" departPos="5.10" departSpeed="0.00" departDelay="0.00" arrival="137.00" arrivalLane="-24071819#0_0" arrivalPos="0.20" arrivalSpeed="17.53" duration="17.00" routeLength="161.06" waitingTime="0.00" waitingCount="0" stopTime="0.00" timeLoss="9.67" rerouteNo="1" devices="tripinfo_60 routing_60" vType="DEFAULT_VEHTYPE" speedFactor="1.08" vaporized=""/>
    <tripinfo id="6" depart="12.00" departLane="-1287862797_0" departPos="0.20" departSpeed="0.00" departDelay="0.00" arrival="142.00" arrivalLane="-833048839#3_0" arrivalPos="1.19" arrivalSpeed="13.96" duration="130.00" routeLength="430.60" waitingTime="86.00" waitingCount="2" stopTime="0.00" timeLoss="114.78" rerouteNo="1" devices="tripinfo_6 routing_6" vType="DEFAULT_VEHTYPE" speedFactor="1.05" vaporized=""/>
    <tripinfo id="26" depart="52.00" departLane="-519223975_0" departPos="0.20" departSpeed="0.00" departDelay="0.00" arrival="147.00" arrivalLane="435724069#1_0" arrivalPos="30.47" arrivalSpeed="12.46" duration="95.00" routeLength="128.41" waitingTime="72.00" waitingCount="2" stopTime="0.00" timeLoss="84.07" rerouteNo="1" devices="tripinfo_26 routing_26" vType="DEFAULT_VEHTYPE" speedFactor="0.92" vaporized=""/>
    <tripinfo id="14" depart="28.00" departLane="4476711#4_0" departPos="0.20" departSpeed="0.00" departDelay="0.00" arrival="154.00" arrivalLane="435724069#1_0" arrivalPos="30.47" arrivalSpeed="12.04" duration="126.00" routeLength="506.52" waitingTime="68.00" waitingCount="2" stopTime="0.00" timeLoss="101.08" rerouteNo="1" devices="tripinfo_14 routing_14" vType="DEFAULT_VEHTYPE" speedFactor="0.99" vaporized=""/>
    <tripinfo id="64" depart="128.00" departLane="435724093#0_0" departPos="0.20" departSpeed="0.00" departDelay="0.00" arrival="184.00" arrivalLane="-433784890#0_0" arrivalPos="17.79" arrivalSpeed="9.49" duration="56.00" routeLength="277.82" waitingTime="19.00" waitingCount="2" stopTime="0.00" timeLoss="41.57" rerouteNo="1" devices="tripinfo_64 routing_64" vType="DEFAULT_VEHTYPE" speedFactor="0.94" vaporized=""/>
    <tripinfo id="5" depart="10.00" departLane="1028907899#1_0" departPos="0.20" departSpeed="0.00" departDelay="0.00" arrival="186.00" arrivalLane="292339723#1_0" arrivalPos="20.67" arrivalSpeed="10.93" duration="176.00" routeLength="716.45" waitingTime="104.00" waitingCount="4" stopTime="0.00" timeLoss="141.31" rerouteNo="1" devices="tripinfo_5 routing_5" vType="DEFAULT_VEHTYPE" speedFactor="0.83" vaporized=""/>
    <tripinfo id="1" depart="2.00" departLane="1051441727#3_1" departPos="5.10" departSpeed="0.00" departDelay="0.00" arrival="190.00" arrivalLane="1038761526#1_1" arrivalPos="0.20" arrivalSpeed="22.42" duration="188.00" routeLength="678.16" waitingTime="111.00" waitingCount="4" stopTime="0.00" timeLoss="158.66" rerouteNo="1" devices="tripinfo_1 routing_1" vType="DEFAULT_VEHTYPE" speedFactor="0.94" vaporized=""/>
    <tripinfo id="33" depart="66.00" departLane="-973275640#0_0" departPos="5.10" departSpeed="0.00" departDelay="0.00" arrival="190.00" arrivalLane="833035173#2_1" arrivalPos="8.00" arrivalSpeed="20.88" duration="124.00" routeLength="964.37" waitingTime="26.00" waitingCount="2" stopTime="0.00" timeLoss="84.80" rerouteNo="1" devices="tripinfo_33 routing_33" vType="DEFAULT_VEHTYPE" speedFactor="1.17" vaporized=""/>
    <tripinfo id="49" depart="98.00" departLane="24071819#1_0" departPos="5.10" departSpeed="0.00" departDelay="0.00" arrival="190.00" arrivalLane="841064474#2_3" arrivalPos="0.30" arrivalSpeed="16.20" duration="92.00" routeLength="518.58" waitingTime="37.00" waitingCount="2" stopTime="0.00" timeLoss="65.77" rerouteNo="1" devices="tripinfo_49 routing_49" vType="DEFAULT_VEHTYPE" speedFactor="0.85" vaporized=""/>
    <tripinfo id="70" depart="140.00" departLane="1191328879#3_0" departPos="5.10" departSpeed="0.00" departDelay="0.00" arrival="190.00" arrivalLane="319345471#1_0" arrivalPos="47.44" arrivalSpeed="23.25" duration="50.00" routeLength="544.80" waitingTime="0.00" waitingCount="0" stopTime="0.00" timeLoss="27.99" rerouteNo="1" devices="tripinfo_70 routing_70" vType="DEFAULT_VEHTYPE" speedFactor="1.02" vaporized=""/>
    <tripinfo id="31" depart="62.00" departLane="1038761526#1_0" departPos="0.20" departSpeed="0.00" departDelay="0.00" arrival="191.00" arrivalLane="-134319745#1_0" arrivalPos="54.20" arrivalSpeed="22.99" duration="129.00" routeLength="515.94" waitingTime="80.00" waitingCount="4" stopTime="0.00" timeLoss="109.74" rerouteNo="1" devices="tripinfo_31 routing_31" vType="DEFAULT_VEHTYPE" speedFactor="1.15" vaporized=""/>
    <tripinfo id="13" depart="26.00" departLane="-292339723#4_0" departPos="5.10" departSpeed="0.00" departDelay="0.00" arrival="192.00" arrivalLane="-294712584#1_0" arrivalPos="9.30" arrivalSpeed="18.53" duration="166.00" routeLength="667.07" waitingTime="104.00" waitingCount="3" stopTime="0.00" timeLoss="141.50" rerouteNo="1" devices="tripinfo_13 routing_13" vType="DEFAULT_VEHTYPE" speedFactor="1.12" vaporized=""/>
    <tripinfo id="15" depart="30.00" departLane="134319745#4_0" departPos="0.20" departSpeed="0.00" departDelay="0.00" arrival="192.00" arrivalLane="316762110#3_0" arrivalPos="27.81" arrivalSpeed="17.71" duration="162.00" routeLength="746.12" waitingTime="84.00" waitingCount="3" stopTime="0.00" timeLoss="127.60" rerouteNo="1" devices="tripinfo_15 routing_15" vType="DEFAULT_VEHTYPE" speedFactor="0.93" vaporized=""/>
    <tripinfo id="3" depart="6.00" departLane="615645277#0_0" departPos="0.83" departSpeed="0.00" departDelay="0.00" arrival="195.00" arrivalLane="-24102433#4_0" arrivalPos="0.20" arrivalSpeed="5.83" duration="189.00" routeLength="952.56" waitingTime="101.00" waitingCount="4" stopTime="0.00" timeLoss="149.51" rerouteNo="1" devices="tripinfo_3 routing_3" vType="DEFAULT_VEHTYPE" speedFactor="1.08" vaporized=""/>
    <tripinfo id="44" depart="88.00" departLane="-24090845#11_0" departPos="5.10" departSpeed="0.00" departDelay="0.00" arrival="195.00" arrivalLane="1362586127_0" arrivalPos="44.35" arrivalSpeed="19.82" duration="107.00" routeLength="638.79" waitingTime="45.00" waitingCount="2" stopTime="0.00" timeLoss="81.41" rerouteNo="1" devices="tripinfo_44 routing_44" vType="DEFAULT_VEHTYPE" speedFactor="1.04" vaporized=""/>
    <tripinfo id="9" depart="18.00" departLane="4476711#6_0" departPos="5.10" departSpeed="0.00" departDelay="0.00" arrival="196.00" arrivalLane="-1106630540#1_0" arrivalPos="2.20" arrivalSpeed="17.90" duration="178.00" routeLength="567.43" waitingTime="119.00" waitingCount="2" stopTime="0.00" timeLoss="147.95" rerouteNo="1" devices="tripinfo_9 routing_9" vType="DEFAULT_VEHTYPE" speedFactor="0.86" vaporized=""/>
    <tripinfo id="24" depart="48.00" departLane="1051441726#4_0" departPos="0.20" departSpeed="0.00" departDelay="0.00" arrival="197.00" arrivalLane="805924007#0_0" arrivalPos="55.32" arrivalSpeed="18.49" duration="149.00" routeLength="912.47" waitingTime="56.00" waitingCount="3" stopTime="0.00" timeLoss="101.36" rerouteNo="1" devices="tripinfo_24 routing_24" vType="DEFAULT_VEHTYPE" speedFactor="0.83" vaporized=""/>
    <tripinfo id="46" depart="92.00" departLane="-1127665632#0_0" departPos="0.20" departSpeed="0.00" departDelay="0.00" arrival="214.00" arrivalLane="435724044#1_1" arrivalPos="17.37" arrivalSpeed="27.67" duration="122.00" routeLength="740.57" waitingTime="63.00" waitingCount="2" stopTime="0.00" timeLoss="94.47" rerouteNo="1" devices="tripinfo_46 routing_46" vType="DEFAULT_VEHTYPE" speedFactor="1.00" vaporized=""/>
    <tripinfo id="16" depart="32.00" departLane="4630404#4_0" departPos="0.20" departSpeed="0.00" departDelay="0.00" arrival="226.00" arrivalLane="381820996#3_3" arrivalPos="0.20" arrivalSpeed="4.09" duration="194.00" routeLength="648.61" waitingTime="116.00" waitingCount="5" stopTime="0.00" timeLoss="163.78" rerouteNo="1" devices="tripinfo_16 routing_16" vType="DEFAULT_VEHTYPE" speedFactor="0.88" vaporized=""/>
    <tripinfo id="23" depart="46.00" departLane="1287862806_0" departPos="0.20" departSpeed="0.00" departDelay="0.00" arrival="228.00" arrivalLane="1002803297#1_2" arrivalPos="30.23" arrivalSpeed="12.77" duration="182.00" routeLength="922.77" waitingTime="100.00" waitingCount="3" stopTime="0.00" timeLoss="140.79" rerouteNo="1" devices="tripinfo_23 routing_23" vType="DEFAULT_VEHTYPE" speedFactor="0.89" vaporized=""/>
    <tripinfo id="28" depart="56.00" departLane="973275640#1_0" departPos="0.11" departSpeed="0.00" departDelay="0.00" arrival="229.00" arrivalLane="433783096#1_2" arrivalPos="0.20" arrivalSpeed="20.95" duration="173.00" routeLength="714.81" waitingTime="107.00" waitingCount="3" stopTime="0.00" timeLoss="146.89" rerouteNo="1" devices="tripinfo_28 routing_28" vType="DEFAULT_VEHTYPE" speedFactor="1.13" vaporized=""/>
    <tripinfo id="58" depart="116.00" departLane="-1194188298#1_0" departPos="5.10" departSpeed="0.00" departDelay="0.00" arrival="232.00" arrivalLane="793372646#2_1" arrivalPos="0.20" arrivalSpeed="13.17" duration="116.00" routeLength="544.32" waitingTime="54.00" waitingCount="3" stopTime="0.00" timeLoss="93.74" rerouteNo="1" devices="tripinfo_58 routing_58" vType="DEFAULT_VEHTYPE" speedFactor="1.02" vaporized=""/>
    <tripinfo id="43" depart="86.00" departLane="445290295#0_0" departPos="0.20" departSpeed="0.00" departDelay="0.00" arrival="233.00" arrivalLane="236157423#0_0" arrivalPos="65.39" arrivalSpeed="13.87" duration="147.00" routeLength="914.83" waitingTime="57.00" waitingCount="4" stopTime="0.00" timeLoss="102.83" rerouteNo="1" devices="tripinfo_43 routing_43" vType="DEFAULT_VEHTYPE" speedFactor="1.04" vaporized=""/>
    <tripinfo id="47" depart="137.00" departLane="1051441726#4_0" departPos="0.20" departSpeed="0.00" departDelay="43.00" arrival="234.00" arrivalLane="433783096#1_2" arrivalPos="0.20" arrivalSpeed="21.46" duration="97.00" routeLength="675.10" waitingTime="26.00" waitingCount="2" stopTime="0.00" timeLoss="65.64" rerouteNo="1" devices="tripinfo_47 routing_47" vType="DEFAULT_VEHTYPE" speedFactor="0.90" vaporized=""/>
    <tripinfo id="10" depart="20.00" departLane="4476711#3_0" departPos="0.20" departSpeed="0.00" departDelay="0.00" arrival="235.00" arrivalLane="435724011#0_0" arrivalPos="40.46" arrivalSpeed="20.26" duration="215.00" routeLength="820.73" waitingTime="135.00" waitingCount="4" stopTime="0.00" timeLoss="181.51" rerouteNo="1" devices="tripinfo_10 routing_10" vType="DEFAULT_VEHTYPE" speedFactor="1.09" vaporized=""/>
    <tripinfo id="117" depart="234.00" departLane="59673547#1_0" departPos="0.20" departSpeed="0.00" departDelay="0.00" arrival="235.00" arrivalLane="59673547#1_0" arrivalPos="0.20" arrivalSpeed="2.29" duration="1.00" routeLength="0.00" waitingTime="0.00" waitingCount="0" stopTime="0.00" timeLoss="0.83" rerouteNo="1" devices="tripinfo_117 routing_117" vType="DEFAULT_VEHTYPE" speedFactor="1.00" vaporized=""/>
    <tripinfo id="53" depart="106.00" departLane="1067743360#6_0" departPos="0.24" departSpeed="0.00" departDelay="0.00" arrival="236.00" arrivalLane="433783095#2_1" arrivalPos="0.20" arrivalSpeed="22.94" duration="130.00" routeLength="581.43" waitingTime="61.00" waitingCount="3" stopTime="0.00" timeLoss="107.78" rerouteNo="1" devices="tripinfo_53 routing_53" vType="DEFAULT_VEHTYPE" speedFactor="1.10" vaporized=""/>
    <tripinfo id="69" depart="138.00" departLane="23700520#4_0" departPos="5.10" departSpeed="0.00" departDelay="0.00" arrival="236.00" arrivalLane="294582657#5_1" arrivalPos="36.75" arrivalSpeed="22.13" duration="98.00" routeLength="370.96" waitingTime="57.00" waitingCount="2" stopTime="0.00" timeLoss="77.98" rerouteNo="1" devices="tripinfo_69 routing_69" vType="DEFAULT_VEHTYPE" speedFactor="1.02" vaporized=""/>
    <tripinfo id="72" depart="144.00" departLane="-24090845#5_0" departPos="0.38" departSpeed="0.00" departDelay="0.00" arrival="243.00" arrivalLane="433783093#0_0" arrivalPos="0.20" arrivalSpeed="25.71" duration="99.00" routeLength="500.54" waitingTime="41.00" waitingCount="2" stopTime="0.00" timeLoss="75.67" rerouteNo="1" devices="tripinfo_72 routing_72" vType="DEFAULT_VEHTYPE" speedFactor="0.94" vaporized=""/>
    <tripinfo id="73" depart="146.00" departLane="59407132#3_0" departPos="5.10" departSpeed="0.00" departDelay="0.00" arrival="246.00" arrivalLane="-24090845#6_0" arrivalPos="18.89" arrivalSpeed="22.65" duration="100.00" routeLength="360.84" waitingTime="53.00" waitingCount="3" stopTime="0.00" timeLoss="81.00" rerouteNo="1" devices="tripinfo_73 routing_73" vType="DEFAULT_VEHTYPE" speedFactor="1.06" vaporized=""/>
    <tripinfo id="71" depart="142.00" departLane="1049318466#0_0" departPos="5.10" departSpeed="0.00" departDelay="0.00" arrival="252.00" arrivalLane="1035941401#1_2" arrivalPos="0.20" arrivalSpeed="24.52" duration="110.00" routeLength="660.82" waitingTime="52.00" waitingCount="2" stopTime="0.00" timeLoss="84.05" rerouteNo="1" devices="tripinfo_71 routing_71" vType="DEFAULT_VEHTYPE" speedFactor="0.97" vaporized=""/>
    <tripinfo id="39" depart="78.00" departLane="1449477173#4_0" departPos="5.10" departSpeed="0.00" departDelay="0.00" arrival="255.00" arrivalLane="1035941401#0_2" arrivalPos="53.95" arrivalSpeed="21.52" duration="177.00" routeLength="802.61" waitingTime="99.00" waitingCount="4" stopTime="0.00" timeLoss="143.10" rerouteNo="1" devices="tripinfo_39 routing_39" vType="DEFAULT_VEHTYPE" speedFactor="0.90" vaporized=""/>
    <tripinfo id="113" depart="226.00" departLane="-24090845#7_0" departPos="0.20" departSpeed="0.00" departDelay="0.00" arrival="255.00" arrivalLane="24090845#3_0" arrivalPos="42.57" arrivalSpeed="22.13" duration="29.00" routeLength="299.81" waitingTime="0.00" waitingCount="0" stopTime="0.00" timeLoss="13.67" rerouteNo="1" devices="tripinfo_113 routing_113" vType="DEFAULT_VEHTYPE" speedFactor="1.01" vaporized=""/>
    <tripinfo id="35" depart="70.00" departLane="657718778#2_0" departPos="5.10" departSpeed="0.00" departDelay="0.00" arrival="266.00" arrivalLane="24090845#3_0" arrivalPos="42.57" arrivalSpeed="22.64" duration="196.00" routeLength="783.42" waitingTime="114.00" waitingCount="3" stopTime="0.00" timeLoss="162.63" rerouteNo="1" devices="tripinfo_35 routing_35" vType="DEFAULT_VEHTYPE" speedFactor="1.02" vaporized=""/>
    <tripinfo id="20" depart="40.00" departLane="-24091488#3_0" departPos="5.10" departSpeed="0.00" departDelay="0.00" arrival="278.00" arrivalLane="1049318468#2_0" arrivalPos="0.20" arrivalSpeed="18.28" duration="238.00" routeLength="1243.70" waitingTime="121.00" waitingCount="4" stopTime="0.00" timeLoss="187.81" rerouteNo="1" devices="tripinfo_20 routing_20" vType="DEFAULT_VEHTYPE" speedFactor="1.02" vaporized=""/>
    <tripinfo id="63" depart="126.00" departLane="-24090845#4_0" departPos="0.20" departSpeed="0.00" departDelay="0.00" arrival="278.00" arrivalLane="435724099#0_0" arrivalPos="13.16" arrivalSpeed="18.65" duration="152.00" routeLength="669.54" waitingTime="76.00" waitingCount="3" stopTime="0.00" timeLoss="121.31" rerouteNo="1" devices="tripinfo_63 routing_63" vType="DEFAULT_VEHTYPE" speedFactor="0.99" vaporized=""/>
    <tripinfo id="37" depart="74.00" departLane="316762111#0_0" departPos="0.20" departSpeed="0.00" departDelay="0.00" arrival="280.00" arrivalLane="1051441726#6_0" arrivalPos="20.64" arrivalSpeed="13.41" duration="206.00" routeLength="1310.45" waitingTime="82.00" waitingCount="5" stopTime="0.00" timeLoss="163.85" rerouteNo="1" devices="tripinfo_37 routing_37" vType="DEFAULT_VEHTYPE" speedFactor="1.18" vaporized=""/>
    <tripinfo id="27" depart="54.00" departLane="-445290295#2_0" departPos="0.20" departSpeed="0.00" departDelay="0.00" arrival="281.00" arrivalLane="1351951431#6_1" arrivalPos="48.17" arrivalSpeed="23.42" duration="227.00" routeLength="898.40" waitingTime="144.00" waitingCount="4" stopTime="0.00" timeLoss="190.19" rerouteNo="1" devices="tripinfo_27 routing_27" vType="DEFAULT_VEHTYPE" speedFactor="0.95" vaporized=""/>
    <tripinfo id="68" depart="136.00" departLane="-833048839#0_0" departPos="5.10" departSpeed="0.00" departDelay="0.00" arrival="283.00" arrivalLane="1137122252#1_0" arrivalPos="0.20" arrivalSpeed="8.42" duration="147.00" routeLength="446.75" waitingTime="95.00" waitingCount="3" stopTime="0.00" timeLoss="129.67" rerouteNo="1" devices="tripinfo_68 routing_68" vType="DEFAULT_VEHTYPE" speedFactor="1.04" vaporized=""/>
    <tripinfo id="7" depart="14.00" departLane="433783097#2_0" departPos="5.10" departSpeed="0.00" departDelay="0.00" arrival="284.00" arrivalLane="315828468#1_1" arrivalPos="7.35" arrivalSpeed="11.40" duration="270.00" routeLength="1025.26" waitingTime="171.00" waitingCount="5" stopTime="0.00" timeLoss="226.25" rerouteNo="1" devices="tripinfo_7 routing_7" vType="DEFAULT_VEHTYPE" speedFactor="0.89" vaporized=""/>
    <tripinfo id="0" depart="0.00" departLane="433783094#0_0" departPos="5.10" departSpeed="0.00" departDelay="0.00" arrival="285.00" arrivalLane="-1217799538_0" arrivalPos="0.20" arrivalSpeed="3.45" duration="285.00" routeLength="1010.93" waitingTime="179.00" waitingCount="7" stopTime="0.00" timeLoss="246.97" rerouteNo="1" devices="tripinfo_0 routing_0" vType="DEFAULT_VEHTYPE" speedFactor="1.06" vaporized=""/>
    <tripinfo id="91" depart="182.00" departLane="5263032#2_0" departPos="5.10" departSpeed="0.00" departDelay="0.00" arrival="285.00" arrivalLane="-519223973#1_1" arrivalPos="0.20" arrivalSpeed="3.11" duration="103.00" routeLength="565.74" waitingTime="40.00" waitingCount="2" stopTime="0.00" timeLoss="77.48" rerouteNo="1" devices="tripinfo_91 routing_91" vType="DEFAULT_VEHTYPE" speedFactor="0.89" vaporized=""/>
    <tripinfo id="112" depart="224.00" departLane="1127665632#2_0" departPos="5.10" departSpeed="0.00" departDelay="0.00" arrival="285.00" arrivalLane="435724090#0_0" arrivalPos="18.34" arrivalSpeed="11.85" duration="61.00" routeLength="346.06" waitingTime="19.00" waitingCount="1" stopTime="0.00" timeLoss="47.21" rerouteNo="1" devices="tripinfo_112 routing_112" vType="DEFAULT_VEHTYPE" speedFactor="1.10" vaporized=""/>
    <tripinfo id="12" depart="24.00" departLane="906195085_0" departPos="5.10" departSpeed="0.00" departDelay="0.00" arrival="286.00" arrivalLane="1191329603_0" arrivalPos="0.20" arrivalSpeed="15.25" duration="262.00" routeLength="1385.90" waitingTime="121.00" waitingCount="5" stopTime="0.00" timeLoss="208.67" rerouteNo="1" devices="tripinfo_12 routing_12" vType="DEFAULT_VEHTYPE" speedFactor="1.05" vaporized=""/>
    <tripinfo id="56" depart="124.00" departLane="435724109#2_0" departPos="0.20" departSpeed="0.00" departDelay="12.00" arrival="292.00" arrivalLane="294839950#4_1" arrivalPos="0.20" arrivalSpeed="23.29" duration="168.00" routeLength="562.38" waitingTime="112.00" waitingCount="3" stopTime="0.00" timeLoss="141.01" rerouteNo="1" devices="tripinfo_56 routing_56" vType="DEFAULT_VEHTYPE" speedFactor="0.90" vaporized=""/>
    <tripinfo id="85" depart="170.00" departLane="236157091#1_0" departPos="5.10" departSpeed="0.00" departDelay="0.00" arrival="293.00" arrivalLane="1051441730#0_1" arrivalPos="27.30" arrivalSpeed="22.01" duration="123.00" routeLength="671.98" waitingTime="57.00" waitingCount="2" stopTime="0.00" timeLoss="80.34" rerouteNo="1" devices="tripinfo_85 routing_85" vType="DEFAULT_VEHTYPE" speedFactor="0.98" vaporized=""/>
    <tripinfo id="125" depart="250.00" departLane="-316762111#1_0" departPos="5.10" departSpeed="0.00" departDelay="0.00" arrival="293.00" arrivalLane="316762110#4_0" arrivalPos="26.58" arrivalSpeed="22.67" duration="43.00" routeLength="268.02" waitingTime="13.00" waitingCount="1" stopTime="0.00" timeLoss="33.07" rerouteNo="1" devices="tripinfo_125 routing_125" vType="DEFAULT_VEHTYPE" speedFactor="1.15" vaporized=""/>
    <tripinfo id="52" depart="104.00" departLane="657718778#0_0" departPos="0.20" departSpeed="0.00" departDelay="0.00" arrival="294.00" arrivalLane="59667619#4_0" arrivalPos="23.14" arrivalSpeed="19.96" duration="190.00" routeLength="1068.91" waitingTime="90.00" waitingCount="4" stopTime="0.00" timeLoss="148.30" rerouteNo="1" devices="tripinfo_52 routing_52" vType="DEFAULT_VEHTYPE" speedFactor="1.02" vaporized=""/>
    <tripinfo id="65" depart="130.00" departLane="24091488#0_0" departPos="0.20" departSpeed="0.00" departDelay="0.00" arrival="298.00" arrivalLane="316762110#1_0" arrivalPos="32.23" arrivalSpeed="12.54" duration="168.00" routeLength="699.58" waitingTime="98.00" waitingCount="3" stopTime="0.00" timeLoss="136.14" rerouteNo="1" devices="tripinfo_65 routing_65" vType="DEFAULT_VEHTYPE" speedFactor="0.88" vaporized=""/>
    <tripinfo id="88" depart="176.00" departLane="315828468#1_0" departPos="5.10" departSpeed="0.00" departDelay="0.00" arrival="313.00" arrivalLane="-23825858#3_0" arrivalPos="14.78" arrivalSpeed="9.84" duration="137.00" routeLength="410.58" waitingTime="90.00" waitingCount="3" stopTime="0.00" timeLoss="118.56" rerouteNo="1" devices="tripinfo_88 routing_88" vType="DEFAULT_VEHTYPE" speedFactor="1.01" vaporized=""/>
    <tripinfo id="141" depart="282.00" departLane="145846251#1_0" departPos="5.10" departSpeed="0.00" departDelay="0.00" arrival="315.00" arrivalLane="381820998#1_1" arrivalPos="0.20" arrivalSpeed="2.49" duration="33.00" routeLength="185.98" waitingTime="11.00" waitingCount="1" stopTime="0.00" timeLoss="27.25" rerouteNo="1" devices="tripinfo_141 routing_141" vType="DEFAULT_VEHTYPE" speedFactor="1.16" vaporized=""/>
    <tripinfo id="22" depart="44.00" departLane="433781990#0_0" departPos="5.10" departSpeed="0.00" departDelay="0.00" arrival="317.00" arrivalLane="134319745#0_0" arrivalPos="0.20" arrivalSpeed="5.61" duration="273.00" routeLength="550.92" waitingTime="204.00" waitingCount="5" stopTime="0.00" timeLoss="249.88" rerouteNo="1" devices="tripinfo_22 routing_22" vType="DEFAULT_VEHTYPE" speedFactor="0.97" vaporized=""/>
    <tripinfo id="51" depart="102.00" departLane="24613631#0_0" departPos="0.20" departSpeed="0.00" departDelay="0.00" arrival="320.00" arrivalLane="-59667619#5_0" arrivalPos="18.60" arrivalSpeed="10.72" duration="218.00" routeLength="597.84" waitingTime="147.00" waitingCount="5" stopTime="0.00" timeLoss="197.66" rerouteNo="1" devices="tripinfo_51 routing_51" vType="DEFAULT_VEHTYPE" speedFactor="1.17" vaporized=""/>
    <tripinfo id="89" depart="178.00" departLane="998704232#2_0" departPos="0.20" departSpeed="0.00" departDelay="0.00" arrival="321.00" arrivalLane="519223973#0_1" arrivalPos="52.22" arrivalSpeed="22.05" duration="143.00" routeLength="1073.14" waitingTime="49.00" waitingCount="4" stopTime="0.00" timeLoss="96.35" rerouteNo="1" devices="tripinfo_89 routing_89" vType="DEFAULT_VEHTYPE" speedFactor="1.02" vaporized=""/>
    <tripinfo id="30" depart="60.00" departLane="519223973#1_0" departPos="0.20" departSpeed="0.00" departDelay="0.00" arrival="323.00" arrivalLane="435724112#1_0" arrivalPos="55.40" arrivalSpeed="17.52" duration="263.00" routeLength="868.97" waitingTime="179.00" waitingCount="6" stopTime="0.00" timeLoss="234.53" rerouteNo="1" devices="tripinfo_30 routing_30" vType="DEFAULT_VEHTYPE" speedFactor="1.18" vaporized=""/>
    <tripinfo id="32" depart="64.00" departLane="1127665632#2_0" departPos="5.10" departSpeed="0.00" departDelay="0.00" arrival="325.00" arrivalLane="1051441727#3_1" arrivalPos="41.60" arrivalSpeed="21.38" duration="261.00" routeLength="1166.62" waitingTime="160.00" waitingCount="4" stopTime="0.00" timeLoss="215.17" rerouteNo="1" devices="tripinfo_32 routing_32" vType="DEFAULT_VEHTYPE" speedFactor="1.01" vaporized=""/>
    <tripinfo id="95" depart="190.00" departLane="1051441726#3_0" departPos="5.10" departSpeed="0.00" departDelay="0.00" arrival="325.00" arrivalLane="435724119#1_1" arrivalPos="0.20" arrivalSpeed="20.68" duration="135.00" routeLength="856.25" waitingTime="57.00" waitingCount="3" stopTime="0.00" timeLoss="103.06" rerouteNo="1" devices="tripinfo_95 routing_95" vType="DEFAULT_VEHTYPE" speedFactor="1.06" vaporized=""/>
    <tripinfo id="21" depart="42.00" departLane="-294712587_0" departPos="0.20" departSpeed="0.00" departDelay="0.00" arrival="326.00" arrivalLane="1051441730#0_0" arrivalPos="27.30" arrivalSpeed="24.75" duration="284.00" routeLength="1251.15" waitingTime="173.00" waitingCount="5" stopTime="0.00" timeLoss="234.60" rerouteNo="1" devices="tripinfo_21 routing_21" vType="DEFAULT_VEHTYPE" speedFactor="1.01" vaporized=""/>
    <tripinfo id="101" depart="202.00" departLane="313874093#1_0" departPos="5.10" departSpeed="0.00" departDelay="0.00" arrival="326.00" arrivalLane="435724088#0_2" arrivalPos="18.47" arrivalSpeed="17.36" duration="124.00" routeLength="464.43" waitingTime="76.00" waitingCount="2" stopTime="0.00" timeLoss="97.83" rerouteNo="1" devices="tripinfo_101 routing_101" vType="DEFAULT_VEHTYPE" speedFactor="0.96" vaporized=""/>
    <tripinfo id="126" depart="252.00" departLane="435724038_0" departPos="5.10" departSpeed="0.00" departDelay="0.00" arrival="326.00" arrivalLane="-934416474#0_0" arrivalPos="49.06" arrivalSpeed="21.83" duration="74.00" routeLength="646.40" waitingTime="13.00" waitingCount="2" stopTime="0.00" timeLoss="45.96" rerouteNo="1" devices="tripinfo_126 routing_126" vType="DEFAULT_VEHTYPE" speedFactor="1.03" vaporized=""/>
    <tripinfo id="129" depart="258.00" departLane="-1049318473#1_0" departPos="5.10" departSpeed="0.00" departDelay="0.00" arrival="326.00" arrivalLane="435724109#1_1" arrivalPos="59.81" arrivalSpeed="16.61" duration="68.00" routeLength="472.20" waitingTime="14.00" waitingCount="2" stopTime="0.00" timeLoss="46.02" rerouteNo="1" devices="tripinfo_129 routing_129" vType="DEFAULT_VEHTYPE" speedFactor="1.01" vaporized=""/>
    <tripinfo id="74" depart="148.00" departLane="1049318468#1_0" departPos="5.10" departSpeed="0.00" departDelay="0.00" arrival="329.00" arrivalLane="433784884#9_0" arrivalPos="44.91" arrivalSpeed="26.17" duration="181.00" routeLength="824.35" waitingTime="93.00" waitingCount="5" stopTime="0.00" timeLoss="148.50" rerouteNo="1" devices="tripinfo_74 routing_74" vType="DEFAULT_VEHTYPE" speedFactor="0.96" vaporized=""/>