<?xml version="1.0" encoding="UTF-8"?>

<!-- generated on 2026-03-24T12:48:18.962234+00:00 by Eclipse SUMO sumo 1.26.0
<sumoConfiguration xmlns:xsi="http://www.w3.org/2001/XMLSchema-instance" xsi:noNamespaceSchemaLocation="http://sumo.dlr.de/xsd/sumoConfiguration.xsd">

    <input>
        <net-file value="simulation\configs\../network/chicago.net.xml"/>
        <route-files value="simulation\configs\../routes/chicago_low.rou.xml"/>
    </input>

    <output>
        <tripinfo-output value="simulation\configs\../../results/tripinfo_low.xml"/>
        <edgedata-output value="simulation\configs\../../results/edge_data_low.xml"/>
    </output>

    <time>
        <begin value="0"/>
        <end value="3600"/>
    </time>

</sumoConfiguration>
-->

<tripinfos xmlns:xsi="http://www.w3.org/2001/XMLSchema-instance" xsi:noNamespaceSchemaLocation="http://sumo.dlr.de/xsd/tripinfo_file.xsd">
    <tripinfo id="4" depart="20.00" departLane="236157091#1_0" departPos="5.10" departSpeed="0.00" departDelay="0.00" arrival="107.00" arrivalLane="-1287862806_0" arrivalPos="0.20" arrivalSpeed="11.52" duration="87.00" routeLength="695.69" waitingTime="22.00" waitingCount="1" stopTime="0.00" timeLoss="56.53" rerouteNo="1" devices="tripinfo_4 routing_4" vType="DEFAULT_VEHTYPE" speedFactor="1.03" vaporized=""/>
    <tripinfo id="6" depart="30.00" departLane="-1287862797_0" departPos="0.20" departSpeed="0.00" departDelay="0.00" arrival="141.00" arrivalLane="-833048839#3_0" arrivalPos="1.19" arrivalSpeed="13.17" duration="111.00" routeLength="430.60" waitingTime="70.00" waitingCount="2" stopTime="0.00" timeLoss="96.08" rerouteNo="1" devices="tripinfo_6 routing_6" vType="DEFAULT_VEHTYPE" speedFactor="1.05" vaporized=""/>
    <tripinfo id="2" depart="10.00" departLane="435724069#1_0" departPos="5.10" departSpeed="0.00" departDelay="0.00" arrival="149.00" arrivalLane="433784889#3_1" arrivalPos="0.20" arrivalSpeed="27.69" duration="139.00" routeLength="540.14" waitingTime="85.00" waitingCount="2" stopTime="0.00" timeLoss="116.80" rerouteNo="1" devices="tripinfo_2 routing_2" vType="DEFAULT_VEHTYPE" speedFactor="1.01" vaporized=""/>
    <tripinfo id="14" depart="70.00" departLane="4476711#4_0" departPos="0.20" departSpeed="0.00" departDelay="0.00" arrival="153.00" arrivalLane="435724069#1_0" arrivalPos="30.47" arrivalSpeed="12.11" duration="83.00" routeLength="506.52" waitingTime="26.00" waitingCount="2" stopTime="0.00" timeLoss="58.24" rerouteNo="1" devices="tripinfo_14 routing_14" vType="DEFAULT_VEHTYPE" speedFactor="0.99" vaporized=""/>
    <tripinfo id="19" depart="95.00" departLane="1038761526#0_0" departPos="5.10" departSpeed="0.00" departDelay="0.00" arrival="181.00" arrivalLane="1067743360#3_0" arrivalPos="0.20" arrivalSpeed="5.03" duration="86.00" routeLength="505.02" waitingTime="36.00" waitingCount="2" stopTime="0.00" timeLoss="68.18" rerouteNo="1" devices="tripinfo_19 routing_19" vType="DEFAULT_VEHTYPE" speedFactor="1.16" vaporized=""/>
    <tripinfo id="5" depart="25.00" departLane="1028907899#1_0" departPos="0.20" departSpeed="0.00" departDelay="0.00" arrival="186.00" arrivalLane="292339723#1_0" arrivalPos="20.67" arrivalSpeed="12.27" duration="161.00" routeLength="716.45" waitingTime="96.00" waitingCount="3" stopTime="0.00" timeLoss="125.85" rerouteNo="1" devices="tripinfo_5 routing_5" vType="DEFAULT_VEHTYPE" speedFactor="0.83" vaporized=""/>
    <tripinfo id="8" depart="40.00" departLane="1033716708#0_0" departPos="0.20" departSpeed="0.00" departDelay="0.00" arrival="187.00" arrivalLane="319345472#0_0" arrivalPos="43.93" arrivalSpeed="16.14" duration="147.00" routeLength="519.34" waitingTime="92.00" waitingCount="2" stopTime="0.00" timeLoss="121.43" rerouteNo="1" devices="tripinfo_8 routing_8" vType="DEFAULT_VEHTYPE" speedFactor="0.94" vaporized=""/>
    <tripinfo id="15" depart="75.00" departLane="134319745#4_0" departPos="0.20" departSpeed="0.00" departDelay="0.00" arrival="189.00" arrivalLane="316762110#3_0" arrivalPos="27.81" arrivalSpeed="19.44" duration="114.00" routeLength="746.12" waitingTime="37.00" waitingCount="3" stopTime="0.00" timeLoss="79.39" rerouteNo="1" devices="tripinfo_15 routing_15" vType="DEFAULT_VEHTYPE" speedFactor="0.93" vaporized=""/>
    <tripinfo id="1" depart="5.00" departLane="1051441727#3_1" departPos="5.10" departSpeed="0.00" departDelay="0.00" arrival="191.00" arrivalLane="1038761526#1_1" arrivalPos="0.20" arrivalSpeed="22.99" duration="186.00" routeLength="678.16" waitingTime="109.00" waitingCount="4" stopTime="0.00" timeLoss="156.74" rerouteNo="1" devices="tripinfo_1 routing_1" vType="DEFAULT_VEHTYPE" speedFactor="0.94" vaporized=""/>
    <tripinfo id="17" depart="85.00" departLane="59410419#1_0" departPos="5.10" departSpeed="0.00" departDelay="0.00" arrival="192.00" arrivalLane="316764838#0_1" arrivalPos="0.20" arrivalSpeed="8.04" duration="107.00" routeLength="378.70" waitingTime="62.00" waitingCount="2" stopTime="0.00" timeLoss="88.87" rerouteNo="1" devices="tripinfo_17 routing_17" vType="DEFAULT_VEHTYPE" speedFactor="0.94" vaporized=""/>
    <tripinfo id="3" depart="15.00" departLane="615645277#0_0" departPos="0.83" departSpeed="0.00" departDelay="0.00" arrival="195.00" arrivalLane="-24102433#4_0" arrivalPos="0.20" arrivalSpeed="5.88" duration="180.00" routeLength="952.56" waitingTime="92.00" waitingCount="4" stopTime="0.00" timeLoss="141.63" rerouteNo="1" devices="tripinfo_3 routing_3" vType="DEFAULT_VEHTYPE" speedFactor="1.08" vaporized=""/>
    <tripinfo id="18" depart="90.00" departLane="435724011#1_0" departPos="0.20" departSpeed="0.00" departDelay="0.00" arrival="200.00" arrivalLane="-236157125#4_2" arrivalPos="0.20" arrivalSpeed="12.49" duration="110.00" routeLength="155.98" waitingTime="87.00" waitingCount="3" stopTime="0.00" timeLoss="95.78" rerouteNo="1" devices="tripinfo_18 routing_18" vType="DEFAULT_VEHTYPE" speedFactor="0.94" vaporized=""/>
    <tripinfo id="41" depart="205.00" departLane="-292339723#2_0" departPos="5.10" departSpeed="0.00" departDelay="0.00" arrival="218.00" arrivalLane="-23825858#0_0" arrivalPos="17.42" arrivalSpeed="24.25" duration="13.00" routeLength="147.20" waitingTime="0.00" waitingCount="0" stopTime="0.00" timeLoss="6.70" rerouteNo="1" devices="tripinfo_41 routing_41" vType="DEFAULT_VEHTYPE" speedFactor="0.96" vaporized=""/>
    <tripinfo id="10" depart="50.00" departLane="4476711#3_0" departPos="0.20" departSpeed="0.00" departDelay="0.00" arrival="235.00" arrivalLane="435724011#0_0" arrivalPos="40.46" arrivalSpeed="18.68" duration="185.00" routeLength="820.73" waitingTime="110.00" waitingCount="3" stopTime="0.00" timeLoss="151.71" rerouteNo="1" devices="tripinfo_10 routing_10" vType="DEFAULT_VEHTYPE" speedFactor="1.09" vaporized=""/>
    <tripinfo id="26" depart="130.00" departLane="-519223975_0" departPos="0.20" departSpeed="0.00" departDelay="0.00" arrival="237.00" arrivalLane="435724069#1_0" arrivalPos="30.47" arrivalSpeed="13.50" duration="107.00" routeLength="128.41" waitingTime="83.00" waitingCount="2" stopTime="0.00" timeLoss="95.80" rerouteNo="1" devices="tripinfo_26 routing_26" vType="DEFAULT_VEHTYPE" speedFactor="0.92" vaporized=""/>
    <tripinfo id="13" depart="65.00" departLane="-292339723#4_0" departPos="5.10" departSpeed="0.00" departDelay="0.00" arrival="278.00" arrivalLane="-294712584#1_0" arrivalPos="9.30" arrivalSpeed="15.25" duration="213.00" routeLength="667.07" waitingTime="147.00" waitingCount="3" stopTime="0.00" timeLoss="188.58" rerouteNo="1" devices="tripinfo_13 routing_13" vType="DEFAULT_VEHTYPE" speedFactor="1.12" vaporized=""/>
    <tripinfo id="31" depart="155.00" departLane="1038761526#1_0" departPos="0.20" departSpeed="0.00" departDelay="0.00" arrival="280.00" arrivalLane="-134319745#1_0" arrivalPos="54.20" arrivalSpeed="22.48" duration="125.00" routeLength="515.94" waitingTime="72.00" waitingCount="4" stopTime="0.00" timeLoss="106.35" rerouteNo="1" devices="tripinfo_31 routing_31" vType="DEFAULT_VEHTYPE" speedFactor="1.15" vaporized=""/>
    <tripinfo id="33" depart="165.00" departLane="-973275640#0_0" departPos="5.10" departSpeed="0.00" departDelay="0.00" arrival="281.00" arrivalLane="833035173#2_0" arrivalPos="8.00" arrivalSpeed="23.04" duration="116.00" routeLength="964.37" waitingTime="22.00" waitingCount="2" stopTime="0.00" timeLoss="76.39" rerouteNo="1" devices="tripinfo_33 routing_33" vType="DEFAULT_VEHTYPE" speedFactor="1.17" vaporized=""/>
    <tripinfo id="0" depart="0.00" departLane="433783094#0_0" departPos="5.10" departSpeed="0.00" departDelay="0.00" arrival="286.00" arrivalLane="-1217799538_0" arrivalPos="0.20" arrivalSpeed="3.78" duration="286.00" routeLength="1010.93" waitingTime="179.00" waitingCount="7" stopTime="0.00" timeLoss="247.96" rerouteNo="1" devices="tripinfo_0 routing_0" vType="DEFAULT_VEHTYPE" speedFactor="1.06" vaporized=""/>
    <tripinfo id="7" depart="35.00" departLane="433783097#2_0" departPos="5.10" departSpeed="0.00" departDelay="0.00" arrival="286.00" arrivalLane="315828468#1_1" arrivalPos="7.35" arrivalSpeed="13.08" duration="251.00" routeLength="1025.26" waitingTime="156.00" waitingCount="5" stopTime="0.00" timeLoss="206.52" rerouteNo="1" devices="tripinfo_7 routing_7" vType="DEFAULT_VEHTYPE" speedFactor="0.89" vaporized=""/>
    <tripinfo id="9" depart="45.00" departLane="4476711#6_0" departPos="5.10" departSpeed="0.00" departDelay="0.00" arrival="286.00" arrivalLane="-1106630540#1_0" arrivalPos="2.20" arrivalSpeed="17.78" duration="241.00" routeLength="567.43" waitingTime="179.00" waitingCount="4" stopTime="0.00" timeLoss="211.60" rerouteNo="1" devices="tripinfo_9 routing_9" vType="DEFAULT_VEHTYPE" speedFactor="0.86" vaporized=""/>
    <tripinfo id="24" depart="120.00" departLane="1051441726#4_0" departPos="0.20" departSpeed="0.00" departDelay="0.00" arrival="288.00" arrivalLane="805924007#0_0" arrivalPos="55.32" arrivalSpeed="18.75" duration="168.00" routeLength="912.47" waitingTime="81.00" waitingCount="4" stopTime="0.00" timeLoss="120.38" rerouteNo="1" devices="tripinfo_24 routing_24" vType="DEFAULT_VEHTYPE" speedFactor="0.83" vaporized=""/>
    <tripinfo id="16" depart="80.00" departLane="4630404#4_0" departPos="0.20" departSpeed="0.00" departDelay="0.00" arrival="316.00" arrivalLane="381820996#3_3" arrivalPos="0.20" arrivalSpeed="4.12" duration="236.00" routeLength="648.61" waitingTime="158.00" waitingCount="6" stopTime="0.00" timeLoss="206.84" rerouteNo="1" devices="tripinfo_16 routing_16" vType="DEFAULT_VEHTYPE" speedFactor="0.88" vaporized=""/>
    <tripinfo id="23" depart="117.00" departLane="1287862806_0" departPos="0.20" departSpeed="0.00" departDelay="2.00" arrival="318.00" arrivalLane="1002803297#1_2" arrivalPos="30.23" arrivalSpeed="11.47" duration="201.00" routeLength="922.77" waitingTime="114.00" waitingCount="4" stopTime="0.00" timeLoss="159.51" rerouteNo="1" devices="tripinfo_23 routing_23" vType="DEFAULT_VEHTYPE" speedFactor="0.89" vaporized=""/>
    <tripinfo id="60" depart="300.00" departLane="1106630540#2_0" departPos="5.10" departSpeed="0.00" departDelay="0.00" arrival="319.00" arrivalLane="-24071819#0_0" arrivalPos="0.20" arrivalSpeed="18.27" duration="19.00" routeLength="161.06" waitingTime="0.00" waitingCount="0" stopTime="0.00" timeLoss="11.33" rerouteNo="1" devices="tripinfo_60 routing_60" vType="DEFAULT_VEHTYPE" speedFactor="1.08" vaporized=""/>
    <tripinfo id="28" depart="140.00" departLane="973275640#1_0" departPos="0.11" departSpeed="0.00" departDelay="0.00" arrival="320.00" arrivalLane="433783096#1_2" arrivalPos="0.20" arrivalSpeed="22.02" duration="180.00" routeLength="714.81" waitingTime="115.00" waitingCount="3" stopTime="0.00" timeLoss="153.78" rerouteNo="1" devices="tripinfo_28 routing_28" vType="DEFAULT_VEHTYPE" speedFactor="1.13" vaporized=""/>
    <tripinfo id="47" depart="235.00" departLane="1051441726#4_0" departPos="0.20" departSpeed="0.00" departDelay="0.00" arrival="325.00" arrivalLane="433783096#1_2" arrivalPos="0.20" arrivalSpeed="22.82" duration="90.00" routeLength="675.10" waitingTime="25.00" waitingCount="2" stopTime="0.00" timeLoss="57.74" rerouteNo="1" devices="tripinfo_47 routing_47" vType="DEFAULT_VEHTYPE" speedFactor="0.90" vaporized=""/>
    <tripinfo id="21" depart="105.00" departLane="-294712587_0" departPos="0.20" departSpeed="0.00" departDelay="0.00" arrival="326.00" arrivalLane="1051441730#0_0" arrivalPos="27.30" arrivalSpeed="22.87" duration="221.00" routeLength="1251.15" waitingTime="93.00" waitingCount="5" stopTime="0.00" timeLoss="173.03" rerouteNo="1" devices="tripinfo_21 routing_21" vType="DEFAULT_VEHTYPE" speedFactor="1.01" vaporized=""/>
    <tripinfo id="39" depart="195.00" departLane="1449477173#4_0" departPos="5.10" departSpeed="0.00" departDelay="0.00" arrival="342.00" arrivalLane="1035941401#0_2" arrivalPos="53.95" arrivalSpeed="22.63" duration="147.00" routeLength="802.61" waitingTime="72.00" waitingCount="3" stopTime="0.00" timeLoss="112.38" rerouteNo="1" devices="tripinfo_39 routing_39" vType="DEFAULT_VEHTYPE" speedFactor="0.90" vaporized=""/>
    <tripinfo id="64" depart="320.00" departLane="435724093#0_0" departPos="0.20" departSpeed="0.00" departDelay="0.00" arrival="364.00" arrivalLane="-433784890#0_0" arrivalPos="17.79" arrivalSpeed="10.39" duration="44.00" routeLength="277.82" waitingTime="8.00" waitingCount="1" stopTime="0.00" timeLoss="28.70" rerouteNo="1" devices="tripinfo_64 routing_64" vType="DEFAULT_VEHTYPE" speedFactor="0.94" vaporized=""/>
    <tripinfo id="37" depart="185.00" departLane="316762111#0_0" departPos="0.20" departSpeed="0.00" departDelay="0.00" arrival="367.00" arrivalLane="1051441726#6_0" arrivalPos="20.64" arrivalSpeed="11.81" duration="182.00" routeLength="1310.45" waitingTime="65.00" waitingCount="4" stopTime="0.00" timeLoss="139.27" rerouteNo="1" devices="tripinfo_37 routing_37" vType="DEFAULT_VEHTYPE" speedFactor="1.18" vaporized=""/>
    <tripinfo id="49" depart="245.00" departLane="24071819#1_0" departPos="5.10" departSpeed="0.00" departDelay="0.00" arrival="370.00" arrivalLane="841064474#2_3" arrivalPos="0.30" arrivalSpeed="18.81" duration="125.00" routeLength="518.58" waitingTime="70.00" waitingCount="3" stopTime="0.00" timeLoss="98.27" rerouteNo="1" devices="tripinfo_49 routing_49" vType="DEFAULT_VEHTYPE" speedFactor="0.85" vaporized=""/>
    <tripinfo id="20" depart="100.00" departLane="-24091488#3_0" departPos="5.10" departSpeed="0.00" departDelay="0.00" arrival="371.00" arrivalLane="1049318468#2_0" arrivalPos="0.20" arrivalSpeed="15.90" duration="271.00" routeLength="1243.70" waitingTime="153.00" waitingCount="5" stopTime="0.00" timeLoss="221.30" rerouteNo="1" devices="tripinfo_20 routing_20" vType="DEFAULT_VEHTYPE" speedFactor="1.02" vaporized=""/>
    <tripinfo id="27" depart="135.00" departLane="-445290295#2_0" departPos="0.20" departSpeed="0.00" departDelay="0.00" arrival="371.00" arrivalLane="1351951431#6_1" arrivalPos="48.17" arrivalSpeed="24.20" duration="236.00" routeLength="898.40" waitingTime="150.00" waitingCount="4" stopTime="0.00" timeLoss="199.10" rerouteNo="1" devices="tripinfo_27 routing_27" vType="DEFAULT_VEHTYPE" speedFactor="0.95" vaporized=""/>
    <tripinfo id="44" depart="220.00" departLane="-24090845#11_0" departPos="5.10" departSpeed="0.00" departDelay="0.00" arrival="373.00" arrivalLane="1362586127_0" arrivalPos="44.35" arrivalSpeed="15.46" duration="153.00" routeLength="638.79" waitingTime="85.00" waitingCount="3" stopTime="0.00" timeLoss="128.79" rerouteNo="1" devices="tripinfo_44 routing_44" vType="DEFAULT_VEHTYPE" speedFactor="1.04" vaporized=""/>
    <tripinfo id="12" depart="60.00" departLane="906195085_0" departPos="5.10" departSpeed="0.00" departDelay="0.00" arrival="378.00" arrivalLane="1191329603_0" arrivalPos="0.20" arrivalSpeed="15.50" duration="318.00" routeLength="1385.90" waitingTime="172.00" waitingCount="6" stopTime="0.00" timeLoss="264.87" rerouteNo="1" devices="tripinfo_12 routing_12" vType="DEFAULT_VEHTYPE" speedFactor="1.05" vaporized=""/>
    <tripinfo id="34" depart="170.00" departLane="59670543#1_0" departPos="5.10" departSpeed="0.00" departDelay="0.00" arrival="383.00" arrivalLane="1190700428#0_0" arrivalPos="0.20" arrivalSpeed="5.90" duration="213.00" routeLength="1350.95" waitingTime="97.00" waitingCount="4" stopTime="0.00" timeLoss="157.08" rerouteNo="1" devices="tripinfo_34 routing_34" vType="DEFAULT_VEHTYPE" speedFactor="0.99" vaporized=""/>
    <tripinfo id="46" depart="230.00" departLane="-1127665632#0_0" departPos="0.20" departSpeed="0.00" departDelay="0.00" arrival="395.00" arrivalLane="435724044#1_1" arrivalPos="17.37" arrivalSpeed="26.69" duration="165.00" routeLength="740.57" waitingTime="103.00" waitingCount="3" stopTime="0.00" timeLoss="137.75" rerouteNo="1" devices="tripinfo_46 routing_46" vType="DEFAULT_VEHTYPE" speedFactor="1.00" vaporized=""/>
    <tripinfo id="11" depart="55.00" departLane="1191329600#0_0" departPos="5.10" departSpeed="0.00" departDelay="0.00" arrival="403.00" arrivalLane="-435724103#1_0" arrivalPos="0.20" arrivalSpeed="21.80" duration="348.00" routeLength="1349.03" waitingTime="217.00" waitingCount="8" stopTime="0.00" timeLoss="295.68" rerouteNo="1" devices="tripinfo_11 routing_11" vType="DEFAULT_VEHTYPE" speedFactor="1.03" vaporized=""/>
    <tripinfo id="36" depart="180.00" departLane="1051441726#2_0" departPos="5.10" departSpeed="0.00" departDelay="0.00" arrival="403.00" arrivalLane="1049318472#0_0" arrivalPos="27.12" arrivalSpeed="7.06" duration="223.00" routeLength="1353.01" waitingTime="105.00" waitingCount="4" stopTime="0.00" timeLoss="169.64" rerouteNo="1" devices="tripinfo_36 routing_36" vType="DEFAULT_VEHTYPE" speedFactor="0.97" vaporized=""/>
    <tripinfo id="22" depart="110.00" departLane="433781990#0_0" departPos="5.10" departSpeed="0.00" departDelay="0.00" arrival="407.00" arrivalLane="134319745#0_0" arrivalPos="0.20" arrivalSpeed="5.14" duration="297.00" routeLength="550.92" waitingTime="223.00" waitingCount="6" stopTime="0.00" timeLoss="273.59" rerouteNo="1" devices="tripinfo_22 routing_22" vType="DEFAULT_VEHTYPE" speedFactor="0.97" vaporized=""/>
    <tripinfo id="58" depart="290.00" departLane="-1194188298#1_0" departPos="5.10" departSpeed="0.00" departDelay="0.00" arrival="411.00" arrivalLane="793372646#2_1" arrivalPos="0.20" arrivalSpeed="12.08" duration="121.00" routeLength="544.32" waitingTime="62.00" waitingCount="3" stopTime="0.00" timeLoss="99.68" rerouteNo="1" devices="tripinfo_58 routing_58" vType="DEFAULT_VEHTYPE" speedFactor="1.02" vaporized=""/>
    <tripinfo id="30" depart="150.00" departLane="519223973#1_0" departPos="0.20" departSpeed="0.00" departDelay="0.00" arrival="413.00" arrivalLane="435724112#1_0" arrivalPos="55.40" arrivalSpeed="19.38" duration="263.00" routeLength="868.97" waitingTime="175.00" waitingCount="6" stopTime="0.00" timeLoss="234.34" rerouteNo="1" devices="tripinfo_30 routing_30" vType="DEFAULT_VEHTYPE" speedFactor="1.18" vaporized=""/>
    <tripinfo id="43" depart="215.00" departLane="445290295#0_0" departPos="0.20" departSpeed="0.00" departDelay="0.00" arrival="413.00" arrivalLane="236157423#0_0" arrivalPos="65.39" arrivalSpeed="13.58" duration="198.00" routeLength="914.83" waitingTime="99.00" waitingCount="4" stopTime="0.00" timeLoss="153.84" rerouteNo="1" devices="tripinfo_43 routing_43" vType="DEFAULT_VEHTYPE" speedFactor="1.04" vaporized=""/>
    <tripinfo id="32" depart="160.00" departLane="1127665632#2_0" departPos="5.10" departSpeed="0.00" departDelay="0.00" arrival="416.00" arrivalLane="1051441727#3_1" arrivalPos="41.60" arrivalSpeed="21.51" duration="256.00" routeLength="1166.62" waitingTime="156.00" waitingCount="4" stopTime="0.00" timeLoss="209.05" rerouteNo="1" devices="tripinfo_32 routing_32" vType="DEFAULT_VEHTYPE" speedFactor="1.01" vaporized=""/>
    <tripinfo id="53" depart="265.00" departLane="1067743360#6_0" departPos="0.24" departSpeed="0.00" departDelay="0.00" arrival="416.00" arrivalLane="433783095#2_0" arrivalPos="0.20" arrivalSpeed="22.44" duration="151.00" routeLength="581.43" waitingTime="86.00" waitingCount="4" stopTime="0.00" timeLoss="129.13" rerouteNo="1" devices="tripinfo_53 routing_53" vType="DEFAULT_VEHTYPE" speedFactor="1.10" vaporized=""/>
    <tripinfo id="69" depart="345.00" departLane="23700520#4_0" departPos="5.10" departSpeed="0.00" departDelay="0.00" arrival="416.00" arrivalLane="294582657#5_1" arrivalPos="36.75" arrivalSpeed="21.15" duration="71.00" routeLength="370.96" waitingTime="29.00" waitingCount="2" stopTime="0.00" timeLoss="50.49" rerouteNo="1" devices="tripinfo_69 routing_69" vType="DEFAULT_VEHTYPE" speedFactor="1.02" vaporized=""/>
    <tripinfo id="72" depart="360.00" departLane="-24090845#5_0" departPos="0.38" departSpeed="0.00" departDelay="0.00" arrival="418.00" arrivalLane="433783093#0_0" arrivalPos="0.20" arrivalSpeed="25.69" duration="58.00" routeLength="500.54" waitingTime="12.00" waitingCount="1" stopTime="0.00" timeLoss="34.66" rerouteNo="1" devices="tripinfo_72 routing_72" vType="DEFAULT_VEHTYPE" speedFactor="0.94" vaporized=""/>
    <tripinfo id="35" depart="175.00" departLane="657718778#2_0" departPos="5.10" departSpeed="0.00" departDelay="0.00" arrival="446.00" arrivalLane="24090845#3_0" arrivalPos="42.57" arrivalSpeed="21.78" duration="271.00" routeLength="783.42" waitingTime="185.00" waitingCount="4" stopTime="0.00" timeLoss="238.10" rerouteNo="1" devices="tripinfo_35 routing_35" vType="DEFAULT_VEHTYPE" speedFactor="1.02" vaporized=""/>
    <tripinfo id="63" depart="315.00" departLane="-24090845#4_0" departPos="0.20" departSpeed="0.00" departDelay="0.00" arrival="458.00" arrivalLane="435724099#0_0" arrivalPos="13.16" arrivalSpeed="17.91" duration="143.00" routeLength="669.54" waitingTime="73.00" waitingCount="3" stopTime="0.00" timeLoss="112.30" rerouteNo="1" devices="tripinfo_63 routing_63" vType="DEFAULT_VEHTYPE" speedFactor="0.99" vaporized=""/>
    <tripinfo id="50" depart="250.00" departLane="59670543#1_0" departPos="5.10" departSpeed="0.00" departDelay="0.00" arrival="459.00" arrivalLane="1051441726#7_0" arrivalPos="49.39" arrivalSpeed="17.84" duration="209.00" routeLength="1154.21" waitingTime="112.00" waitingCount="4" stopTime="0.00" timeLoss="153.24" rerouteNo="1" devices="tripinfo_50 routing_50" vType="DEFAULT_VEHTYPE" speedFactor="0.85" vaporized=""/>
    <tripinfo id="38" depart="190.00" departLane="316764838#0_0" departPos="0.20" departSpeed="0.00" departDelay="0.00" arrival="460.00" arrivalLane="615900433#5_2" arrivalPos="0.71" arrivalSpeed="21.21" duration="270.00" routeLength="1315.08" waitingTime="147.00" waitingCount="7" stopTime="0.00" timeLoss="223.69" rerouteNo="1" devices="tripinfo_38 routing_38" vType="DEFAULT_VEHTYPE" speedFactor="1.10" vaporized=""/>
    <tripinfo id="70" depart="350.00" departLane="1191328879#3_0" departPos="5.10" departSpeed="0.00" departDelay="0.00" arrival="461.00" arrivalLane="319345471#1_0" arrivalPos="47.44" arrivalSpeed="25.83" duration="111.00" routeLength="544.80" waitingTime="53.00" waitingCount="3" stopTime="0.00" timeLoss="88.15" rerouteNo="1" devices="tripinfo_70 routing_70" vType="DEFAULT_VEHTYPE" speedFactor="1.02" vaporized=""/>
    <tripinfo id="68" depart="340.00" departLane="-833048839#0_0" departPos="5.10" departSpeed="0.00" departDelay="0.00" arrival="464.00" arrivalLane="1137122252#1_1" arrivalPos="0.20" arrivalSpeed="7.29" duration="124.00" routeLength="446.75" waitingTime="72.00" waitingCount="3" stopTime="0.00" timeLoss="107.54" rerouteNo="1" devices="tripinfo_68 routing_68" vType="DEFAULT_VEHTYPE" speedFactor="1.04" vaporized=""/>
    <tripinfo id="67" depart="335.00" departLane="313874092_0" departPos="5.10" departSpeed="0.00" departDelay="0.00" arrival="468.00" arrivalLane="435724069#1_1" arrivalPos="30.47" arrivalSpeed="10.93" duration="133.00" routeLength="479.14" waitingTime="75.00" waitingCount="3" stopTime="0.00" timeLoss="108.42" rerouteNo="1" devices="tripinfo_67 routing_67" vType="DEFAULT_VEHTYPE" speedFactor="0.91" vaporized=""/>
    <tripinfo id="52" depart="260.00" departLane="657718778#0_0" departPos="0.20" departSpeed="0.00" departDelay="0.00" arrival="473.00" arrivalLane="59667619#4_0" arrivalPos="23.14" arrivalSpeed="19.41" duration="213.00" routeLength="1068.91" waitingTime="116.00" waitingCount="5" stopTime="0.00" timeLoss="171.31" rerouteNo="1" devices="tripinfo_52 routing_52" vType="DEFAULT_VEHTYPE" speedFactor="1.02" vaporized=""/>
    <tripinfo id="56" depart="280.00" departLane="435724109#2_0" departPos="0.20" departSpeed="0.00" departDelay="0.00" arrival="473.00" arrivalLane="294839950#4_1" arrivalPos="0.20" arrivalSpeed="23.01" duration="193.00" routeLength="562.38" waitingTime="134.00" waitingCount="3" stopTime="0.00" timeLoss="167.04" rerouteNo="1" devices="tripinfo_56 routing_56" vType="DEFAULT_VEHTYPE" speedFactor="0.90" vaporized=""/>
    <tripinfo id="65" depart="325.00" departLane="24091488#0_0" departPos="0.20" departSpeed="0.00" departDelay="0.00" arrival="479.00" arrivalLane="316762110#1_0" arrivalPos="32.23" arrivalSpeed="13.23" duration="154.00" routeLength="699.58" waitingTime="83.00" waitingCount="3" stopTime="0.00" timeLoss="120.92" rerouteNo="1" devices="tripinfo_65 routing_65" vType="DEFAULT_VEHTYPE" speedFactor="0.88" vaporized=""/>
    <tripinfo id="51" depart="255.00" departLane="24613631#0_0" departPos="0.20" departSpeed="0.00" departDelay="0.00" arrival="501.00" arrivalLane="-59667619#5_0" arrivalPos="18.60" arrivalSpeed="12.94" duration="246.00" routeLength="597.84" waitingTime="171.00" waitingCount="5" stopTime="0.00" timeLoss="224.90" rerouteNo="1" devices="tripinfo_51 routing_51" vType="DEFAULT_VEHTYPE" speedFactor="1.17" vaporized=""/>
    <tripinfo id="74" depart="370.00" departLane="1049318468#1_0" departPos="5.10" departSpeed="0.00" departDelay="0.00" arrival="509.00" arrivalLane="433784884#9_1" arrivalPos="44.91" arrivalSpeed="25.50" duration="139.00" routeLength="824.35" waitingTime="63.00" waitingCount="3" stopTime="0.00" timeLoss="106.96" rerouteNo="1" devices="tripinfo_74 routing_74" vType="DEFAULT_VEHTYPE" speedFactor="0.96" vaporized=""/>
    <tripinfo id="73" depart="365.00" departLane="59407132#3_0" departPos="5.10" departSpeed="0.00" departDelay="0.00" arrival="512.00" arrivalLane="-24090845#6_0" arrivalPos="18.89" arrivalSpeed="22.18" duration="147.00" routeLength="360.84" waitingTime="100.00" waitingCount="3" stopTime="0.00" timeLoss="128.94" rerouteNo="1" devices="tripinfo_73 routing_73" vType="DEFAULT_VEHTYPE" speedFactor="1.06" vaporized=""/>
    <tripinfo id="61" depart="305.00" departLane="59670543#3_0" departPos="1.23" departSpeed="0.00" departDelay="0.00" arrival="516.00" arrivalLane="833048839#0_0" arrivalPos="14.83" arrivalSpeed="10.49" duration="211.00" routeLength="1346.25" waitingTime="84.00" waitingCount="5" stopTime="0.00" timeLoss="162.49" rerouteNo="1" devices="tripinfo_61 routing_61" vType="DEFAULT_VEHTYPE" speedFactor="1.12" vaporized=""/>
    <tripinfo id="71" depart="355.00" departLane="1049318466#0_0" departPos="5.10" departSpeed="0.00" departDelay="0.00" arrival="523.00" arrivalLane="1035941401#1_2" arrivalPos="0.20" arrivalSpeed="23.92" duration="168.00" routeLength="660.82" waitingTime="101.00" waitingCount="4" stopTime="0.00" timeLoss="142.06" rerouteNo="1" devices="tripinfo_71 routing_71" vType="DEFAULT_VEHTYPE" speedFactor="0.97" vaporized=""/>
    <tripinfo id="29" depart="145.00" departLane="316762110#1_0" departPos="5.10" departSpeed="0.00" departDelay="0.00" arrival="545.00" arrivalLane="435558491#1_0" arrivalPos="12.93" arrivalSpeed="10.38" duration="400.00" routeLength="1323.02" waitingTime="265.00" waitingCount="8" stopTime="0.00" timeLoss="346.38" rerouteNo="1" devices="tripinfo_29 routing_29" vType="DEFAULT_VEHTYPE" speedFactor="0.93" vaporized=""/>
    <tripinfo id="62" depart="310.00" departLane="-24102433#2_0" departPos="0.25" departSpeed="0.00" departDelay="0.00" arrival="550.00" arrivalLane="24213759#4_1" arrivalPos="0.20" arrivalSpeed="21.08" duration="240.00" routeLength="589.13" waitingTime="169.00" waitingCount="5" stopTime="0.00" timeLoss="213.85" rerouteNo="1" devices="tripinfo_62 routing_62" vType="DEFAULT_VEHTYPE" speedFactor="1.02" vaporized=""/>
    <tripinfo id="66" depart="330.00" departLane="1051441726#3_0" departPos="5.10" departSpeed="0.00" departDelay="0.00" arrival="550.00" arrivalLane="59670543#0_0" arrivalPos="0.73" arrivalSpeed="4.92" duration="220.00" routeLength="909.34" waitingTime="134.00" waitingCount="5" stopTime="0.00" timeLoss="179.65" rerouteNo="1" devices="tripinfo_66 routing_66" vType="DEFAULT_VEHTYPE" speedFactor="0.91" vaporized=""/>
    <tripinfo id="54" depart="270.00" departLane="337681340#1_0" departPos="5.10" departSpeed="0.00" departDelay="0.00" arrival="552.00" arrivalLane="-435724099#1_0" arrivalPos="0.20" arrivalSpeed="24.36" duration="282.00" routeLength="781.29" waitingTime="201.00" waitingCount="5" stopTime="0.00" timeLoss="250.42" rerouteNo="1" devices="tripinfo_54 routing_54" vType="DEFAULT_VEHTYPE" speedFactor="1.00" vaporized=""/>
    <tripinfo id="91" depart="455.00" departLane="5263032#2_0" departPos="5.10" departSpeed="0.00" departDelay="0.00" arrival="554.00" arrivalLane="-519223973#1_1" arrivalPos="0.20" arrivalSpeed="2.82" duration="99.00" routeLength="565.74" waitingTime="36.00" waitingCount="2" stopTime="0.00" timeLoss="72.56" rerouteNo="1" devices="tripinfo_91 routing_91" vType="DEFAULT_VEHTYPE" speedFactor="0.89" vaporized=""/>
    <tripinfo id="85" depart="425.00" departLane="236157091#1_0" departPos="5.10" departSpeed="0.00" departDelay="0.00" arrival="562.00" arrivalLane="1051441730#0_1" arrivalPos="27.30" arrivalSpeed="21.67" duration="137.00" routeLength="671.98" waitingTime="71.00" waitingCount="2" stopTime="0.00" timeLoss="94.55" rerouteNo="1" devices="tripinfo_85 routing_85" vType="DEFAULT_VEHTYPE" speedFactor="0.98" vaporized=""/>