<?xml version="1.0" encoding="UTF-8"?>

<!-- generated on 2026-04-13T23:43:13.015027+00:00 by Eclipse SUMO sumo 1.26.0
<sumoConfiguration xmlns:xsi="http://www.w3.org/2001/XMLSchema-instance" xsi:noNamespaceSchemaLocation="http://sumo.dlr.de/xsd/sumoConfiguration.xsd">

    <input>
        <net-file value="simulation/configs/../network/chicago.net.xml"/>
        <route-files value="simulation/configs/../routes/chicago_medium.rou.xml"/>
    </input>

    <output>
        <tripinfo-output value="simulation/configs/../../results/tripinfo_rl_medium_run1.xml"/>
        <edgedata-output value="simulation/configs/../../results/edge_rl_medium_run1.xml"/>
    </output>

    <time>
        <begin value="0"/>
        <end value="3600"/>
    </time>

    <traci_server>
        <remote-port value="59623"/>
    </traci_server>

</sumoConfiguration>
-->

<tripinfos xmlns:xsi="http://www.w3.org/2001/XMLSchema-instance" xsi:noNamespaceSchemaLocation="http://sumo.dlr.de/xsd/tripinfo_file.xsd">
    <tripinfo id="2" depart="4.00" departLane="435724069#1_0" departPos="5.10" departSpeed="0.00" departDelay="0.00" arrival="60.00" arrivalLane="433784889#3_1" arrivalPos="0.20" arrivalSpeed="27.76" duration="56.00" routeLength="540.14" waitingTime="4.00" waitingCount="1" stopTime="0.00" timeLoss="33.21" rerouteNo="1" devices="tripinfo_2 routing_2" vType="DEFAULT_VEHTYPE" speedFactor="1.01" vaporized=""/>
    <tripinfo id="6" depart="12.00" departLane="-1287862797_0" departPos="0.20" departSpeed="0.00" departDelay="0.00" arrival="92.00" arrivalLane="-833048839#3_0" arrivalPos="1.19" arrivalSpeed="10.59" duration="80.00" routeLength="430.60" waitingTime="43.00" waitingCount="2" stopTime="0.00" timeLoss="64.87" rerouteNo="1" devices="tripinfo_6 routing_6" vType="DEFAULT_VEHTYPE" speedFactor="1.05" vaporized=""/>
    <tripinfo id="19" depart="38.00" departLane="1038761526#0_0" departPos="5.10" departSpeed="0.00" departDelay="0.00" arrival="95.00" arrivalLane="1067743360#3_0" arrivalPos="0.20" arrivalSpeed="16.61" duration="57.00" routeLength="505.02" waitingTime="11.00" waitingCount="2" stopTime="0.00" timeLoss="39.21" rerouteNo="1" devices="tripinfo_19 routing_19" vType="DEFAULT_VEHTYPE" speedFactor="1.16" vaporized=""/>
    <tripinfo id="18" depart="36.00" departLane="435724011#1_0" departPos="0.20" departSpeed="0.00" departDelay="0.00" arrival="97.00" arrivalLane="-236157125#4_2" arrivalPos="0.20" arrivalSpeed="12.00" duration="61.00" routeLength="155.98" waitingTime="40.00" waitingCount="2" stopTime="0.00" timeLoss="46.36" rerouteNo="1" devices="tripinfo_18 routing_18" vType="DEFAULT_VEHTYPE" speedFactor="0.94" vaporized=""/>
    <tripinfo id="31" depart="62.00" departLane="1038761526#1_0" departPos="0.20" departSpeed="0.00" departDelay="0.00" arrival="105.00" arrivalLane="-134319745#1_0" arrivalPos="54.20" arrivalSpeed="29.95" duration="43.00" routeLength="515.94" waitingTime="6.00" waitingCount="2" stopTime="0.00" timeLoss="23.87" rerouteNo="1" devices="tripinfo_31 routing_31" vType="DEFAULT_VEHTYPE" speedFactor="1.15" vaporized=""/>
    <tripinfo id="60" depart="120.00" departLane="1106630540#2_0" departPos="5.10" departSpeed="0.00" departDelay="0.00" arrival="143.00" arrivalLane="-24071819#0_0" arrivalPos="0.20" arrivalSpeed="3.33" duration="23.00" routeLength="161.06" waitingTime="0.00" waitingCount="0" stopTime="0.00" timeLoss="15.78" rerouteNo="1" devices="tripinfo_60 routing_60" vType="DEFAULT_VEHTYPE" speedFactor="1.08" vaporized=""/>
    <tripinfo id="26" depart="52.00" departLane="-519223975_0" departPos="0.20" departSpeed="0.00" departDelay="0.00" arrival="146.00" arrivalLane="435724069#1_0" arrivalPos="30.47" arrivalSpeed="11.99" duration="94.00" routeLength="128.41" waitingTime="70.00" waitingCount="2" stopTime="0.00" timeLoss="82.41" rerouteNo="1" devices="tripinfo_26 routing_26" vType="DEFAULT_VEHTYPE" speedFactor="0.92" vaporized=""/>
    <tripinfo id="10" depart="20.00" departLane="4476711#3_0" departPos="0.20" departSpeed="0.00" departDelay="0.00" arrival="147.00" arrivalLane="435724011#0_0" arrivalPos="40.46" arrivalSpeed="19.71" duration="127.00" routeLength="820.73" waitingTime="52.00" waitingCount="4" stopTime="0.00" timeLoss="93.47" rerouteNo="1" devices="tripinfo_10 routing_10" vType="DEFAULT_VEHTYPE" speedFactor="1.09" vaporized=""/>
    <tripinfo id="5" depart="10.00" departLane="1028907899#1_0" departPos="0.20" departSpeed="0.00" departDelay="0.00" arrival="157.00" arrivalLane="292339723#1_0" arrivalPos="20.67" arrivalSpeed="10.02" duration="147.00" routeLength="716.45" waitingTime="68.00" waitingCount="3" stopTime="0.00" timeLoss="112.41" rerouteNo="1" devices="tripinfo_5 routing_5" vType="DEFAULT_VEHTYPE" speedFactor="0.83" vaporized=""/>
    <tripinfo id="14" depart="28.00" departLane="4476711#4_0" departPos="0.20" departSpeed="0.00" departDelay="0.00" arrival="159.00" arrivalLane="435724069#1_0" arrivalPos="30.47" arrivalSpeed="13.73" duration="131.00" routeLength="506.52" waitingTime="70.00" waitingCount="3" stopTime="0.00" timeLoss="106.05" rerouteNo="1" devices="tripinfo_14 routing_14" vType="DEFAULT_VEHTYPE" speedFactor="0.99" vaporized=""/>
    <tripinfo id="70" depart="140.00" departLane="1191328879#3_0" departPos="5.10" departSpeed="0.00" departDelay="0.00" arrival="188.00" arrivalLane="319345471#1_1" arrivalPos="47.44" arrivalSpeed="4.85" duration="48.00" routeLength="544.80" waitingTime="0.00" waitingCount="0" stopTime="0.00" timeLoss="25.68" rerouteNo="1" devices="tripinfo_70 routing_70" vType="DEFAULT_VEHTYPE" speedFactor="1.02" vaporized=""/>
    <tripinfo id="1" depart="2.00" departLane="1051441727#3_1" departPos="5.10" departSpeed="0.00" departDelay="0.00" arrival="193.00" arrivalLane="1038761526#1_1" arrivalPos="0.20" arrivalSpeed="3.75" duration="191.00" routeLength="678.16" waitingTime="108.00" waitingCount="5" stopTime="0.00" timeLoss="161.86" rerouteNo="1" devices="tripinfo_1 routing_1" vType="DEFAULT_VEHTYPE" speedFactor="0.94" vaporized=""/>
    <tripinfo id="17" depart="34.00" departLane="59410419#1_0" departPos="5.10" departSpeed="0.00" departDelay="0.00" arrival="198.00" arrivalLane="316764838#0_1" arrivalPos="0.20" arrivalSpeed="7.87" duration="164.00" routeLength="378.70" waitingTime="103.00" waitingCount="4" stopTime="0.00" timeLoss="146.61" rerouteNo="1" devices="tripinfo_17 routing_17" vType="DEFAULT_VEHTYPE" speedFactor="0.94" vaporized=""/>
    <tripinfo id="41" depart="82.00" departLane="-292339723#2_0" departPos="5.10" departSpeed="0.00" departDelay="0.00" arrival="198.00" arrivalLane="-23825858#0_0" arrivalPos="17.42" arrivalSpeed="19.34" duration="116.00" routeLength="147.20" waitingTime="96.00" waitingCount="1" stopTime="0.00" timeLoss="110.12" rerouteNo="1" devices="tripinfo_41 routing_41" vType="DEFAULT_VEHTYPE" speedFactor="0.96" vaporized=""/>
    <tripinfo id="3" depart="6.00" departLane="615645277#0_0" departPos="0.83" departSpeed="0.00" departDelay="0.00" arrival="208.00" arrivalLane="-24102433#4_0" arrivalPos="0.20" arrivalSpeed="5.74" duration="202.00" routeLength="952.56" waitingTime="95.00" waitingCount="8" stopTime="0.00" timeLoss="163.12" rerouteNo="1" devices="tripinfo_3 routing_3" vType="DEFAULT_VEHTYPE" speedFactor="1.08" vaporized=""/>
    <tripinfo id="8" depart="16.00" departLane="1033716708#0_0" departPos="0.20" departSpeed="0.00" departDelay="0.00" arrival="210.00" arrivalLane="319345472#0_0" arrivalPos="43.93" arrivalSpeed="14.00" duration="194.00" routeLength="519.34" waitingTime="121.00" waitingCount="4" stopTime="0.00" timeLoss="167.98" rerouteNo="1" devices="tripinfo_8 routing_8" vType="DEFAULT_VEHTYPE" speedFactor="0.94" vaporized=""/>
    <tripinfo id="9" depart="18.00" departLane="4476711#6_0" departPos="5.10" departSpeed="0.00" departDelay="0.00" arrival="214.00" arrivalLane="-1106630540#1_0" arrivalPos="2.20" arrivalSpeed="18.66" duration="196.00" routeLength="567.43" waitingTime="135.00" waitingCount="2" stopTime="0.00" timeLoss="166.65" rerouteNo="1" devices="tripinfo_9 routing_9" vType="DEFAULT_VEHTYPE" speedFactor="0.86" vaporized=""/>
    <tripinfo id="56" depart="123.00" departLane="435724109#2_0" departPos="0.20" departSpeed="0.00" departDelay="11.00" arrival="219.00" arrivalLane="294839950#4_1" arrivalPos="0.20" arrivalSpeed="24.15" duration="96.00" routeLength="562.38" waitingTime="42.00" waitingCount="2" stopTime="0.00" timeLoss="69.46" rerouteNo="1" devices="tripinfo_56 routing_56" vType="DEFAULT_VEHTYPE" speedFactor="0.90" vaporized=""/>
    <tripinfo id="4" depart="8.00" departLane="236157091#1_0" departPos="5.10" departSpeed="0.00" departDelay="0.00" arrival="223.00" arrivalLane="-1287862806_0" arrivalPos="0.20" arrivalSpeed="13.78" duration="215.00" routeLength="695.69" waitingTime="133.00" waitingCount="4" stopTime="0.00" timeLoss="183.72" rerouteNo="1" devices="tripinfo_4 routing_4" vType="DEFAULT_VEHTYPE" speedFactor="1.03" vaporized=""/>
    <tripinfo id="24" depart="48.00" departLane="1051441726#4_0" departPos="0.20" departSpeed="0.00" departDelay="0.00" arrival="228.00" arrivalLane="805924007#0_0" arrivalPos="55.32" arrivalSpeed="19.73" duration="180.00" routeLength="912.47" waitingTime="76.00" waitingCount="3" stopTime="0.00" timeLoss="132.48" rerouteNo="1" devices="tripinfo_24 routing_24" vType="DEFAULT_VEHTYPE" speedFactor="0.83" vaporized=""/>
    <tripinfo id="117" depart="234.00" departLane="59673547#1_0" departPos="0.20" departSpeed="0.00" departDelay="0.00" arrival="235.00" arrivalLane="59673547#1_0" arrivalPos="0.20" arrivalSpeed="1.69" duration="1.00" routeLength="0.00" waitingTime="0.00" waitingCount="0" stopTime="0.00" timeLoss="0.87" rerouteNo="1" devices="tripinfo_117 routing_117" vType="DEFAULT_VEHTYPE" speedFactor="1.00" vaporized=""/>
    <tripinfo id="16" depart="32.00" departLane="4630404#4_0" departPos="0.20" departSpeed="0.00" departDelay="0.00" arrival="238.00" arrivalLane="381820996#3_3" arrivalPos="0.20" arrivalSpeed="3.84" duration="206.00" routeLength="648.61" waitingTime="117.00" waitingCount="6" stopTime="0.00" timeLoss="175.93" rerouteNo="1" devices="tripinfo_16 routing_16" vType="DEFAULT_VEHTYPE" speedFactor="0.88" vaporized=""/>
    <tripinfo id="64" depart="128.00" departLane="435724093#0_0" departPos="0.20" departSpeed="0.00" departDelay="0.00" arrival="246.00" arrivalLane="-433784890#0_0" arrivalPos="17.79" arrivalSpeed="9.82" duration="118.00" routeLength="277.82" waitingTime="80.00" waitingCount="2" stopTime="0.00" timeLoss="102.68" rerouteNo="1" devices="tripinfo_64 routing_64" vType="DEFAULT_VEHTYPE" speedFactor="0.94" vaporized=""/>
    <tripinfo id="58" depart="116.00" departLane="-1194188298#1_0" departPos="5.10" departSpeed="0.00" departDelay="0.00" arrival="247.00" arrivalLane="793372646#2_1" arrivalPos="0.20" arrivalSpeed="13.19" duration="131.00" routeLength="544.32" waitingTime="59.00" waitingCount="5" stopTime="0.00" timeLoss="108.75" rerouteNo="1" devices="tripinfo_58 routing_58" vType="DEFAULT_VEHTYPE" speedFactor="1.02" vaporized=""/>
    <tripinfo id="43" depart="86.00" departLane="445290295#0_0" departPos="0.20" departSpeed="0.00" departDelay="0.00" arrival="248.00" arrivalLane="236157423#0_0" arrivalPos="65.39" arrivalSpeed="13.75" duration="162.00" routeLength="914.83" waitingTime="57.00" waitingCount="5" stopTime="0.00" timeLoss="117.49" rerouteNo="1" devices="tripinfo_43 routing_43" vType="DEFAULT_VEHTYPE" speedFactor="1.04" vaporized=""/>
    <tripinfo id="69" depart="138.00" departLane="23700520#4_0" departPos="5.10" departSpeed="0.00" departDelay="0.00" arrival="251.00" arrivalLane="294582657#5_1" arrivalPos="36.75" arrivalSpeed="21.47" duration="113.00" routeLength="370.96" waitingTime="69.00" waitingCount="2" stopTime="0.00" timeLoss="92.94" rerouteNo="1" devices="tripinfo_69 routing_69" vType="DEFAULT_VEHTYPE" speedFactor="1.02" vaporized=""/>
    <tripinfo id="101" depart="202.00" departLane="313874093#1_0" departPos="5.10" departSpeed="0.00" departDelay="0.00" arrival="251.00" arrivalLane="435724088#0_0" arrivalPos="18.47" arrivalSpeed="20.21" duration="49.00" routeLength="464.43" waitingTime="3.00" waitingCount="1" stopTime="0.00" timeLoss="23.07" rerouteNo="1" devices="tripinfo_101 routing_101" vType="DEFAULT_VEHTYPE" speedFactor="0.96" vaporized=""/>
    <tripinfo id="21" depart="42.00" departLane="-294712587_0" departPos="0.20" departSpeed="0.00" departDelay="0.00" arrival="252.00" arrivalLane="1051441730#0_0" arrivalPos="27.30" arrivalSpeed="20.58" duration="210.00" routeLength="1251.15" waitingTime="94.00" waitingCount="5" stopTime="0.00" timeLoss="161.08" rerouteNo="1" devices="tripinfo_21 routing_21" vType="DEFAULT_VEHTYPE" speedFactor="1.01" vaporized=""/>
    <tripinfo id="32" depart="64.00" departLane="1127665632#2_0" departPos="5.10" departSpeed="0.00" departDelay="0.00" arrival="253.00" arrivalLane="1051441727#3_1" arrivalPos="41.60" arrivalSpeed="18.26" duration="189.00" routeLength="1166.62" waitingTime="74.00" waitingCount="6" stopTime="0.00" timeLoss="140.93" rerouteNo="1" devices="tripinfo_32 routing_32" vType="DEFAULT_VEHTYPE" speedFactor="1.01" vaporized=""/>
    <tripinfo id="113" depart="226.00" departLane="-24090845#7_0" departPos="0.20" departSpeed="0.00" departDelay="0.00" arrival="253.00" arrivalLane="24090845#3_0" arrivalPos="42.57" arrivalSpeed="21.92" duration="27.00" routeLength="299.81" waitingTime="0.00" waitingCount="0" stopTime="0.00" timeLoss="12.27" rerouteNo="1" devices="tripinfo_113 routing_113" vType="DEFAULT_VEHTYPE" speedFactor="1.01" vaporized=""/>
    <tripinfo id="63" depart="126.00" departLane="-24090845#4_0" departPos="0.20" departSpeed="0.00" departDelay="0.00" arrival="257.00" arrivalLane="435724099#0_0" arrivalPos="13.16" arrivalSpeed="15.79" duration="131.00" routeLength="669.54" waitingTime="51.00" waitingCount="3" stopTime="0.00" timeLoss="99.96" rerouteNo="1" devices="tripinfo_63 routing_63" vType="DEFAULT_VEHTYPE" speedFactor="0.99" vaporized=""/>
    <tripinfo id="7" depart="14.00" departLane="433783097#2_0" departPos="5.10" departSpeed="0.00" departDelay="0.00" arrival="264.00" arrivalLane="315828468#1_1" arrivalPos="7.35" arrivalSpeed="13.27" duration="250.00" routeLength="1025.26" waitingTime="133.00" waitingCount="6" stopTime="0.00" timeLoss="205.28" rerouteNo="1" devices="tripinfo_7 routing_7" vType="DEFAULT_VEHTYPE" speedFactor="0.89" vaporized=""/>
    <tripinfo id="73" depart="146.00" departLane="59407132#3_0" departPos="5.10" departSpeed="0.00" departDelay="0.00" arrival="264.00" arrivalLane="-24090845#6_0" arrivalPos="18.89" arrivalSpeed="23.03" duration="118.00" routeLength="360.84" waitingTime="66.00" waitingCount="5" stopTime="0.00" timeLoss="99.64" rerouteNo="1" devices="tripinfo_73 routing_73" vType="DEFAULT_VEHTYPE" speedFactor="1.06" vaporized=""/>
    <tripinfo id="72" depart="144.00" departLane="-24090845#5_0" departPos="0.38" departSpeed="0.00" departDelay="0.00" arrival="265.00" arrivalLane="433783093#0_0" arrivalPos="0.20" arrivalSpeed="24.08" duration="121.00" routeLength="500.54" waitingTime="56.00" waitingCount="5" stopTime="0.00" timeLoss="97.79" rerouteNo="1" devices="tripinfo_72 routing_72" vType="DEFAULT_VEHTYPE" speedFactor="0.94" vaporized=""/>
    <tripinfo id="71" depart="142.00" departLane="1049318466#0_0" departPos="5.10" departSpeed="0.00" departDelay="0.00" arrival="269.00" arrivalLane="1035941401#1_2" arrivalPos="0.20" arrivalSpeed="21.43" duration="127.00" routeLength="660.82" waitingTime="59.00" waitingCount="3" stopTime="0.00" timeLoss="101.69" rerouteNo="1" devices="tripinfo_71 routing_71" vType="DEFAULT_VEHTYPE" speedFactor="0.97" vaporized=""/>
    <tripinfo id="39" depart="78.00" departLane="1449477173#4_0" departPos="5.10" departSpeed="0.00" departDelay="0.00" arrival="271.00" arrivalLane="1035941401#0_2" arrivalPos="53.95" arrivalSpeed="23.00" duration="193.00" routeLength="802.61" waitingTime="108.00" waitingCount="6" stopTime="0.00" timeLoss="158.13" rerouteNo="1" devices="tripinfo_39 routing_39" vType="DEFAULT_VEHTYPE" speedFactor="0.90" vaporized=""/>
    <tripinfo id="35" depart="70.00" departLane="657718778#2_0" departPos="5.10" departSpeed="0.00" departDelay="0.00" arrival="282.00" arrivalLane="24090845#3_0" arrivalPos="42.57" arrivalSpeed="21.36" duration="212.00" routeLength="783.42" waitingTime="118.00" waitingCount="5" stopTime="0.00" timeLoss="178.18" rerouteNo="1" devices="tripinfo_35 routing_35" vType="DEFAULT_VEHTYPE" speedFactor="1.02" vaporized=""/>
    <tripinfo id="87" depart="174.00" departLane="23825858#0_0" departPos="5.10" departSpeed="0.00" departDelay="0.00" arrival="290.00" arrivalLane="59667608_0" arrivalPos="0.20" arrivalSpeed="4.90" duration="116.00" routeLength="516.75" waitingTime="58.00" waitingCount="4" stopTime="0.00" timeLoss="87.57" rerouteNo="1" devices="tripinfo_87 routing_87" vType="DEFAULT_VEHTYPE" speedFactor="1.04" vaporized=""/>
    <tripinfo id="106" depart="212.00" departLane="319345471#1_0" departPos="5.10" departSpeed="0.00" departDelay="0.00" arrival="299.00" arrivalLane="433784889#2_0" arrivalPos="24.28" arrivalSpeed="17.23" duration="87.00" routeLength="504.33" waitingTime="35.00" waitingCount="3" stopTime="0.00" timeLoss="65.36" rerouteNo="1" devices="tripinfo_106 routing_106" vType="DEFAULT_VEHTYPE" speedFactor="1.01" vaporized=""/>
    <tripinfo id="49" depart="98.00" departLane="24071819#1_0" departPos="5.10" departSpeed="0.00" departDelay="0.00" arrival="300.00" arrivalLane="841064474#2_3" arrivalPos="0.30" arrivalSpeed="16.90" duration="202.00" routeLength="518.58" waitingTime="140.00" waitingCount="5" stopTime="0.00" timeLoss="175.01" rerouteNo="1" devices="tripinfo_49 routing_49" vType="DEFAULT_VEHTYPE" speedFactor="0.85" vaporized=""/>
    <tripinfo id="68" depart="136.00" departLane="-833048839#0_0" departPos="5.10" departSpeed="0.00" departDelay="0.00" arrival="301.00" arrivalLane="1137122252#1_1" arrivalPos="0.20" arrivalSpeed="6.93" duration="165.00" routeLength="446.75" waitingTime="107.00" waitingCount="3" stopTime="0.00" timeLoss="148.14" rerouteNo="1" devices="tripinfo_68 routing_68" vType="DEFAULT_VEHTYPE" speedFactor="1.04" vaporized=""/>
    <tripinfo id="0" depart="0.00" departLane="433783094#0_0" departPos="5.10" departSpeed="0.00" departDelay="0.00" arrival="306.00" arrivalLane="-1217799538_0" arrivalPos="0.20" arrivalSpeed="3.60" duration="306.00" routeLength="1010.93" waitingTime="187.00" waitingCount="6" stopTime="0.00" timeLoss="267.59" rerouteNo="1" devices="tripinfo_0 routing_0" vType="DEFAULT_VEHTYPE" speedFactor="1.06" vaporized=""/>
    <tripinfo id="44" depart="88.00" departLane="-24090845#11_0" departPos="5.10" departSpeed="0.00" departDelay="0.00" arrival="306.00" arrivalLane="1362586127_0" arrivalPos="44.35" arrivalSpeed="20.63" duration="218.00" routeLength="638.79" waitingTime="166.00" waitingCount="4" stopTime="0.00" timeLoss="193.21" rerouteNo="1" devices="tripinfo_44 routing_44" vType="DEFAULT_VEHTYPE" speedFactor="1.04" vaporized=""/>
    <tripinfo id="46" depart="92.00" departLane="-1127665632#0_0" departPos="0.20" departSpeed="0.00" departDelay="0.00" arrival="306.00" arrivalLane="435724044#1_1" arrivalPos="17.37" arrivalSpeed="27.50" duration="214.00" routeLength="740.57" waitingTime="130.00" waitingCount="4" stopTime="0.00" timeLoss="186.37" rerouteNo="1" devices="tripinfo_46 routing_46" vType="DEFAULT_VEHTYPE" speedFactor="1.00" vaporized=""/>
    <tripinfo id="125" depart="252.00" departLane="-316762111#1_0" departPos="5.10" departSpeed="0.00" departDelay="2.00" arrival="306.00" arrivalLane="316762110#4_0" arrivalPos="26.58" arrivalSpeed="23.50" duration="54.00" routeLength="268.02" waitingTime="20.00" waitingCount="2" stopTime="0.00" timeLoss="43.74" rerouteNo="1" devices="tripinfo_125 routing_125" vType="DEFAULT_VEHTYPE" speedFactor="1.15" vaporized=""/>
    <tripinfo id="112" depart="224.00" departLane="1127665632#2_0" departPos="5.10" departSpeed="0.00" departDelay="0.00" arrival="308.00" arrivalLane="435724090#0_0" arrivalPos="18.34" arrivalSpeed="12.10" duration="84.00" routeLength="346.06" waitingTime="36.00" waitingCount="2" stopTime="0.00" timeLoss="69.91" rerouteNo="1" devices="tripinfo_112 routing_112" vType="DEFAULT_VEHTYPE" speedFactor="1.10" vaporized=""/>
    <tripinfo id="13" depart="26.00" departLane="-292339723#4_0" departPos="5.10" departSpeed="0.00" departDelay="0.00" arrival="313.00" arrivalLane="-294712584#1_0" arrivalPos="9.30" arrivalSpeed="18.29" duration="287.00" routeLength="667.07" waitingTime="210.00" waitingCount="4" stopTime="0.00" timeLoss="262.52" rerouteNo="1" devices="tripinfo_13 routing_13" vType="DEFAULT_VEHTYPE" speedFactor="1.12" vaporized=""/>
    <tripinfo id="85" depart="170.00" departLane="236157091#1_0" departPos="5.10" departSpeed="0.00" departDelay="0.00" arrival="314.00" arrivalLane="1051441730#0_1" arrivalPos="27.30" arrivalSpeed="23.76" duration="144.00" routeLength="671.98" waitingTime="67.00" waitingCount="3" stopTime="0.00" timeLoss="101.18" rerouteNo="1" devices="tripinfo_85 routing_85" vType="DEFAULT_VEHTYPE" speedFactor="0.98" vaporized=""/>
    <tripinfo id="52" depart="104.00" departLane="657718778#0_0" departPos="0.20" departSpeed="0.00" departDelay="0.00" arrival="316.00" arrivalLane="59667619#4_0" arrivalPos="23.14" arrivalSpeed="18.89" duration="212.00" routeLength="1068.91" waitingTime="102.00" waitingCount="7" stopTime="0.00" timeLoss="170.97" rerouteNo="1" devices="tripinfo_52 routing_52" vType="DEFAULT_VEHTYPE" speedFactor="1.02" vaporized=""/>
    <tripinfo id="76" depart="152.00" departLane="805911051#0_0" departPos="5.10" departSpeed="0.00" departDelay="0.00" arrival="316.00" arrivalLane="316764836#0_3" arrivalPos="0.20" arrivalSpeed="7.66" duration="164.00" routeLength="971.27" waitingTime="75.00" waitingCount="4" stopTime="0.00" timeLoss="127.15" rerouteNo="1" devices="tripinfo_76 routing_76" vType="DEFAULT_VEHTYPE" speedFactor="1.03" vaporized=""/>
    <tripinfo id="15" depart="30.00" departLane="134319745#4_0" departPos="0.20" departSpeed="0.00" departDelay="0.00" arrival="319.00" arrivalLane="316762110#3_0" arrivalPos="27.81" arrivalSpeed="18.59" duration="289.00" routeLength="746.12" waitingTime="192.00" waitingCount="5" stopTime="0.00" timeLoss="254.21" rerouteNo="1" devices="tripinfo_15 routing_15" vType="DEFAULT_VEHTYPE" speedFactor="0.93" vaporized=""/>
    <tripinfo id="33" depart="66.00" departLane="-973275640#0_0" departPos="5.10" departSpeed="0.00" departDelay="0.00" arrival="322.00" arrivalLane="833035173#2_0" arrivalPos="8.00" arrivalSpeed="23.88" duration="256.00" routeLength="964.37" waitingTime="143.00" waitingCount="6" stopTime="0.00" timeLoss="216.32" rerouteNo="1" devices="tripinfo_33 routing_33" vType="DEFAULT_VEHTYPE" speedFactor="1.17" vaporized=""/>
    <tripinfo id="37" depart="74.00" departLane="316762111#0_0" departPos="0.20" departSpeed="0.00" departDelay="0.00" arrival="322.00" arrivalLane="1051441726#6_0" arrivalPos="20.64" arrivalSpeed="13.73" duration="248.00" routeLength="1310.45" waitingTime="118.00" waitingCount="6" stopTime="0.00" timeLoss="205.88" rerouteNo="1" devices="tripinfo_37 routing_37" vType="DEFAULT_VEHTYPE" speedFactor="1.18" vaporized=""/>
    <tripinfo id="27" depart="54.00" departLane="-445290295#2_0" departPos="0.20" departSpeed="0.00" departDelay="0.00" arrival="325.00" arrivalLane="1351951431#6_0" arrivalPos="48.17" arrivalSpeed="6.35" duration="271.00" routeLength="898.40" waitingTime="160.00" waitingCount="4" stopTime="0.00" timeLoss="234.75" rerouteNo="1" devices="tripinfo_27 routing_27" vType="DEFAULT_VEHTYPE" speedFactor="0.95" vaporized=""/>
    <tripinfo id="121" depart="242.00" departLane="433783935#0_0" departPos="0.20" departSpeed="0.00" departDelay="0.00" arrival="325.00" arrivalLane="-1106630541#1_0" arrivalPos="0.20" arrivalSpeed="8.61" duration="83.00" routeLength="533.31" waitingTime="39.00" waitingCount="1" stopTime="0.00" timeLoss="62.64" rerouteNo="1" devices="tripinfo_121 routing_121" vType="DEFAULT_VEHTYPE" speedFactor="1.10" vaporized=""/>
    <tripinfo id="50" depart="100.00" departLane="59670543#1_0" departPos="5.10" departSpeed="0.00" departDelay="0.00" arrival="332.00" arrivalLane="1051441726#7_0" arrivalPos="49.39" arrivalSpeed="17.07" duration="232.00" routeLength="1154.21" waitingTime="96.00" waitingCount="5" stopTime="0.00" timeLoss="176.90" rerouteNo="1" devices="tripinfo_50 routing_50" vType="DEFAULT_VEHTYPE" speedFactor="0.85" vaporized=""/>
    <tripinfo id="141" depart="282.00" departLane="145846251#1_0" departPos="5.10" departSpeed="0.00" departDelay="0.00" arrival="338.00" arrivalLane="381820998#1_1" arrivalPos="0.20" arrivalSpeed="4.20" duration="56.00" routeLength="185.98" waitingTime="23.00" waitingCount="2" stopTime="0.00" timeLoss="50.13" rerouteNo="1" devices="tripinfo_141 routing_141" vType="DEFAULT_VEHTYPE" speedFactor="1.16" vaporized=""/>
    <tripinfo id="22" depart="44.00" departLane="433781990#0_0" departPos="5.10" departSpeed="0.00" departDelay="0.00" arrival="339.00" arrivalLane="134319745#0_0" arrivalPos="0.20" arrivalSpeed="5.78" duration="295.00" routeLength="550.92" waitingTime="214.00" waitingCount="7" stopTime="0.00" timeLoss="271.42" rerouteNo="1" devices="tripinfo_22 routing_22" vType="DEFAULT_VEHTYPE" speedFactor="0.97" vaporized=""/>
    <tripinfo id="53" depart="106.00" departLane="1067743360#6_0" departPos="0.24" departSpeed="0.00" departDelay="0.00" arrival="343.00" arrivalLane="433783095#2_0" arrivalPos="0.20" arrivalSpeed="3.87" duration="237.00" routeLength="581.43" waitingTime="154.00" waitingCount="6" stopTime="0.00" timeLoss="215.39" rerouteNo="1" devices="tripinfo_53 routing_53" vType="DEFAULT_VEHTYPE" speedFactor="1.10" vaporized=""/>
    <tripinfo id="51" depart="102.00" departLane="24613631#0_0" departPos="0.20" departSpeed="0.00" departDelay="0.00" arrival="345.00" arrivalLane="-59667619#5_0" arrivalPos="18.60" arrivalSpeed="10.46" duration="243.00" routeLength="597.84" waitingTime="161.00" waitingCount="7" stopTime="0.00" timeLoss="222.58" rerouteNo="1" devices="tripinfo_51 routing_51" vType="DEFAULT_VEHTYPE" speedFactor="1.17" vaporized=""/>
    <tripinfo id="126" depart="252.00" departLane="435724038_0" departPos="5.10" departSpeed="0.00" departDelay="0.00" arrival="352.00" arrivalLane="-934416474#0_0" arrivalPos="49.06" arrivalSpeed="21.14" duration="100.00" routeLength="646.40" waitingTime="26.00" waitingCount="3" stopTime="0.00" timeLoss="72.64" rerouteNo="1" devices="tripinfo_126 routing_126" vType="DEFAULT_VEHTYPE" speedFactor="1.03" vaporized=""/>
    <tripinfo id="74" depart="148.00" departLane="1049318468#1_0" departPos="5.10" departSpeed="0.00" departDelay="0.00" arrival="354.00" arrivalLane="433784884#9_1" arrivalPos="44.91" arrivalSpeed="25.82" duration="206.00" routeLength="824.35" waitingTime="109.00" waitingCount="6" stopTime="0.00" timeLoss="173.91" rerouteNo="1" devices="tripinfo_74 routing_74" vType="DEFAULT_VEHTYPE" speedFactor="0.96" vaporized=""/>
    <tripinfo id="91" depart="182.00" departLane="5263032#2_0" departPos="5.10" departSpeed="0.00" departDelay="0.00" arrival="356.00" arrivalLane="-519223973#1_1" arrivalPos="0.20" arrivalSpeed="2.43" duration="174.00" routeLength="565.74" waitingTime="98.00" waitingCount="4" stopTime="0.00" timeLoss="147.61" rerouteNo="1" devices="tripinfo_91 routing_91" vType="DEFAULT_VEHTYPE" speedFactor="0.89" vaporized=""/>
    <tripinfo id="111" depart="222.00" departLane="433784884#7_0" departPos="0.20" departSpeed="0.00" departDelay="0.00" arrival="356.00" arrivalLane="1106630540#2_0" arrivalPos="74.96" arrivalSpeed="19.03" duration="134.00" routeLength="412.38" waitingTime="79.00" waitingCount="3" stopTime="0.00" timeLoss="113.37" rerouteNo="1" devices="tripinfo_111 routing_111" vType="DEFAULT_VEHTYPE" speedFactor="0.87" vaporized=""/>
    <tripinfo id="78" depart="156.00" departLane="4476711#5_0" departPos="5.10" departSpeed="0.00" departDelay="0.00" arrival="358.00" arrivalLane="-798192665#1_0" arrivalPos="0.89" arrivalSpeed="20.80" duration="202.00" routeLength="656.72" waitingTime="120.00" waitingCount="6" stopTime="0.00" timeLoss="174.82" rerouteNo="1" devices="tripinfo_78 routing_78" vType="DEFAULT_VEHTYPE" speedFactor="1.01" vaporized=""/>
    <tripinfo id="95" depart="190.00" departLane="1051441726#3_0" departPos="5.10" departSpeed="0.00" departDelay="0.00" arrival="358.00" arrivalLane="435724119#1_2" arrivalPos="0.20" arrivalSpeed="6.91" duration="168.00" routeLength="856.25" waitingTime="75.00" waitingCount="4" stopTime="0.00" timeLoss="135.51" rerouteNo="1" devices="tripinfo_95 routing_95" vType="DEFAULT_VEHTYPE" speedFactor="1.06" vaporized=""/>
    <tripinfo id="98" depart="199.00" departLane="316762110#0_0" departPos="0.20" departSpeed="0.00" departDelay="3.00" arrival="359.00" arrivalLane="435724041#2_1" arrivalPos="23.41" arrivalSpeed="20.83" duration="160.00" routeLength="853.75" waitingTime="75.00" waitingCount="3" stopTime="0.00" timeLoss="130.63" rerouteNo="1" devices="tripinfo_98 routing_98" vType="DEFAULT_VEHTYPE" speedFactor="1.12" vaporized=""/>
    <tripinfo id="84" depart="168.00" departLane="-683816243#1_0" departPos="0.20" departSpeed="0.00" departDelay="0.00" arrival="360.00" arrivalLane="24075632#2_0" arrivalPos="36.02" arrivalSpeed="14.94" duration="192.00" routeLength="1008.87" waitingTime="86.00" waitingCount="4" stopTime="0.00" timeLoss="153.31" rerouteNo="1" devices="tripinfo_84 routing_84" vType="DEFAULT_VEHTYPE" speedFactor="1.15" vaporized=""/>
    <tripinfo id="25" depart="50.00" departLane="433783097#0_0" departPos="0.20" departSpeed="0.00" departDelay="0.00" arrival="363.00" arrivalLane="372671686#1_0" arrivalPos="116.70" arrivalSpeed="11.42" duration="313.00" routeLength="1890.06" waitingTime="130.00" waitingCount="9" stopTime="0.00" timeLoss="212.63" rerouteNo="1" devices="tripinfo_25 routing_25" vType="DEFAULT_VEHTYPE" speedFactor="0.87" vaporized=""/>