<?xml version="1.0" encoding="UTF-8"?>

<!-- generated on 2026-04-17T08:35:32.734482+00:00 by Eclipse SUMO GUI 1.26.0
<sumoConfiguration xmlns:xsi="http://www.w3.org/2001/XMLSchema-instance" xsi:noNamespaceSchemaLocation="http://sumo.dlr.de/xsd/sumoConfiguration.xsd">

    <input>
        <net-file value="simulation/configs/../network/chicago.net.xml"/>
        <route-files value="simulation/configs/../routes/chicago_medium.rou.xml"/>
    </input>

    <output>
        <tripinfo-output value="simulation/configs/../../results/tripinfo_hierarchical_rl_medium.xml"/>
        <edgedata-output value="simulation/configs/../../results/edge_hierarchical_rl_medium.xml"/>
    </output>

    <time>
        <begin value="0"/>
        <end value="3600"/>
    </time>

    <traci_server>
        <remote-port value="55186"/>
    </traci_server>

</sumoConfiguration>
-->

<tripinfos xmlns:xsi="http://www.w3.org/2001/XMLSchema-instance" xsi:noNamespaceSchemaLocation="http://sumo.dlr.de/xsd/tripinfo_file.xsd">
    <tripinfo id="2" depart="4.00" departLane="435724069#1_0" departPos="5.10" departSpeed="0.00" departDelay="0.00" arrival="59.00" arrivalLane="433784889#3_1" arrivalPos="0.20" arrivalSpeed="28.03" duration="55.00" routeLength="540.14" waitingTime="6.00" waitingCount="1" stopTime="0.00" timeLoss="32.79" rerouteNo="1" devices="tripinfo_2 routing_2" vType="DEFAULT_VEHTYPE" speedFactor="1.01" vaporized=""/>
    <tripinfo id="19" depart="38.00" departLane="1038761526#0_0" departPos="5.10" departSpeed="0.00" departDelay="0.00" arrival="79.00" arrivalLane="1067743360#3_0" arrivalPos="0.20" arrivalSpeed="18.89" duration="41.00" routeLength="505.02" waitingTime="0.00" waitingCount="0" stopTime="0.00" timeLoss="22.48" rerouteNo="1" devices="tripinfo_19 routing_19" vType="DEFAULT_VEHTYPE" speedFactor="1.16" vaporized=""/>
    <tripinfo id="31" depart="62.00" departLane="1038761526#1_0" departPos="0.20" departSpeed="0.00" departDelay="0.00" arrival="112.00" arrivalLane="-134319745#1_0" arrivalPos="54.20" arrivalSpeed="23.91" duration="50.00" routeLength="515.94" waitingTime="8.00" waitingCount="2" stopTime="0.00" timeLoss="30.12" rerouteNo="1" devices="tripinfo_31 routing_31" vType="DEFAULT_VEHTYPE" speedFactor="1.15" vaporized=""/>
    <tripinfo id="4" depart="8.00" departLane="236157091#1_0" departPos="5.10" departSpeed="0.00" departDelay="0.00" arrival="113.00" arrivalLane="-1287862806_0" arrivalPos="0.20" arrivalSpeed="12.49" duration="105.00" routeLength="695.69" waitingTime="36.00" waitingCount="2" stopTime="0.00" timeLoss="73.23" rerouteNo="1" devices="tripinfo_4 routing_4" vType="DEFAULT_VEHTYPE" speedFactor="1.03" vaporized=""/>
    <tripinfo id="18" depart="36.00" departLane="435724011#1_0" departPos="0.20" departSpeed="0.00" departDelay="0.00" arrival="115.00" arrivalLane="-236157125#4_2" arrivalPos="0.20" arrivalSpeed="11.79" duration="79.00" routeLength="155.98" waitingTime="56.00" waitingCount="3" stopTime="0.00" timeLoss="64.78" rerouteNo="1" devices="tripinfo_18 routing_18" vType="DEFAULT_VEHTYPE" speedFactor="0.94" vaporized=""/>
    <tripinfo id="8" depart="16.00" departLane="1033716708#0_0" departPos="0.20" departSpeed="0.00" departDelay="0.00" arrival="119.00" arrivalLane="319345472#0_0" arrivalPos="43.93" arrivalSpeed="15.93" duration="103.00" routeLength="519.34" waitingTime="45.00" waitingCount="2" stopTime="0.00" timeLoss="76.69" rerouteNo="1" devices="tripinfo_8 routing_8" vType="DEFAULT_VEHTYPE" speedFactor="0.94" vaporized=""/>
    <tripin</tripinfos>
art="120.00" departLane="1106630540#2_0" departPos="5.10" departSpeed="0.00" departDelay="0.00" arrival="138.00" arrivalLane="-24071819#0_0" arrivalPos="0.20" arrivalSpeed="17.64" duration="18.00" routeLength="161.06" waitingTime="0.00" waitingCount="0" stopTime="0.00" timeLoss="10.85" rerouteNo="1" devices="tripinfo_60 routing_60" vType="DEFAULT_VEHTYPE" speedFactor="1.08" vaporized=""/>
    <tripinfo id="26" depart="52.00" departLane="-519223975_0" departPos="0.20" departSpeed="0.00" departDelay="0.00" arrival="170.00" arrivalLane="435724069#1_0" arrivalPos="30.47" arrivalSpeed="11.37" duration="118.00" routeLength="128.41" waitingTime="93.00" waitingCount="3" stopTime="0.00" timeLoss="107.15" rerouteNo="1" devices="tripinfo_26 routing_26" vType="DEFAULT_VEHTYPE" speedFactor="0.92" vaporized=""/>
    <tripinfo id="69" depart="138.00" departLane="23700520#4_0" departPos="5.10" departSpeed="0.00" departDelay="0.00" arrival="175.00" arrivalLane="294582657#5_1" arrivalPos="36.75" arrivalSpeed="21.72" duration="37.00" routeLength="370.96" waitingTime="0.00" waitingCount="0" stopTime="0.00" timeLoss="16.01" rerouteNo="1" devices="tripinfo_69 routing_69" vType="DEFAULT_VEHTYPE" speedFactor="1.02" vaporized=""/>
    <tripinfo id="5" depart="10.00" departLane="1028907899#1_0" departPos="0.20" departSpeed="0.00" departDelay="0.00" arrival="181.00" arrivalLane="292339723#1_0" arrivalPos="20.67" arrivalSpeed="11.11" duration="171.00" routeLength="716.45" waitingTime="98.00" waitingCount="3" stopTime="0.00" timeLoss="136.17" rerouteNo="1" devices="tripinfo_5 routing_5" vType="DEFAULT_VEHTYPE" speedFactor="0.83" vaporized=""/>
    <tripinfo id="6" depart="12.00" departLane="-1287862797_0" departPos="0.20" departSpeed="0.00" departDelay="0.00" arrival="181.00" arrivalLane="-833048839#3_0" arrivalPos="1.19" arrivalSpeed="14.98" duration="169.00" routeLength="430.60" waitingTime="126.00" waitingCount="2" stopTime="0.00" timeLoss="153.93" rerouteNo="1" devices="tripinfo_6 routing_6" vType="DEFAULT_VEHTYPE" speedFactor="1.05" vaporized=""/>
    <tripinfo id="14" depart="28.00" departLane="4476711#4_0" departPos="0.20" departSpeed="0.00" departDelay="0.00" arrival="183.00" arrivalLane="435724069#1_0" arrivalPos="30.47" arrivalSpeed="13.05" duration="155.00" routeLength="506.52" waitingTime="92.00" waitingCount="2" stopTime="0.00" timeLoss="130.46" rerouteNo="1" devices="tripinfo_14 routing_14" vType="DEFAULT_VEHTYPE" speedFactor="0.99" vaporized=""/>
    <tripinfo id="39" depart="78.00" departLane="1449477173#4_0" departPos="5.10" departSpeed="0.00" departDelay="0.00" arrival="193.00" arrivalLane="1035941401#0_2" arrivalPos="53.95" arrivalSpeed="22.16" duration="115.00" routeLength="802.61" waitingTime="48.00" waitingCount="2" stopTime="0.00" timeLoss="80.95" rerouteNo="1" devices="tripinfo_39 routing_39" vType="DEFAULT_VEHTYPE" speedFactor="0.90" vaporized=""/>
    <tripinfo id="1" depart="2.00" departLane="1051441727#3_1" departPos="5.10" departSpeed="0.00" departDelay="0.00" arrival="211.00" arrivalLane="1038761526#1_1" arrivalPos="0.20" arrivalSpeed="22.82" duration="209.00" routeLength="678.16" waitingTime="129.00" waitingCount="4" stopTime="0.00" timeLoss="179.72" rerouteNo="1" devices="tripinfo_1 routing_1" vType="DEFAULT_VEHTYPE" speedFactor="0.94" vaporized=""/>
    <tripinfo id="64" depart="128.00" departLane="435724093#0_0" departPos="0.20" departSpeed="0.00" departDelay="0.00" arrival="226.00" arrivalLane="-433784890#0_0" arrivalPos="17.79" arrivalSpeed="8.90" duration="98.00" routeLength="277.82" waitingTime="56.00" waitingCount="3" stopTime="0.00" timeLoss="83.18" rerouteNo="1" devices="tripinfo_64 routing_64" vType="DEFAULT_VEHTYPE" speedFactor="0.94" vaporized=""/>
    <tripinfo id="15" depart="30.00" departLane="134319745#4_0" departPos="0.20" departSpeed="0.00" departDelay="0.00" arrival="231.00" arrivalLane="316762110#3_0" arrivalPos="27.81" arrivalSpeed="18.09" duration="201.00" routeLength="746.12" waitingTime="111.00" waitingCount="3" stopTime="0.00" timeLoss="166.10" rerouteNo="1" devices="tripinfo_15 routing_15" vType="DEFAULT_VEHTYPE" speedFactor="0.93" vaporized=""/>
    <tripinfo id="33" depart="66.00" departLane="-973275640#0_0" departPos="5.10" departSpeed="0.00" departDelay="0.00" arrival="231.00" arrivalLane="833035173#2_1" arrivalPos="8.00" arrivalSpeed="21.51" duration="165.00" routeLength="964.37" waitingTime="55.00" waitingCount="4" stopTime="0.00" timeLoss="125.95" rerouteNo="1" devices="tripinfo_33 routing_33" vType="DEFAULT_VEHTYPE" speedFactor="1.17" vaporized=""/>
    <tripinfo id="41" depart="82.00" departLane="-292339723#2_0" departPos="5.10" departSpeed="0.00" departDelay="0.00" arrival="231.00" arrivalLane="-23825858#0_0" arrivalPos="17.42" arrivalSpeed="18.48" duration="149.00" routeLength="147.20" waitingTime="127.00" waitingCount="2" stopTime="0.00" timeLoss="143.11" rerouteNo="1" devices="tripinfo_41 routing_41" vType="DEFAULT_VEHTYPE" speedFactor="0.96" vaporized=""/>
    <tripinfo id="70" depart="140.00" departLane="1191328879#3_0" departPos="5.10" departSpeed="0.00" departDelay="0.00" arrival="234.00" arrivalLane="319345471#1_0" arrivalPos="47.44" arrivalSpeed="22.89" duration="94.00" routeLength="544.80" waitingTime="26.00" waitingCount="2" stopTime="0.00" timeLoss="70.76" rerouteNo="1" devices="tripinfo_70 routing_70" vType="DEFAULT_VEHTYPE" speedFactor="1.02" vaporized=""/>
    <tripinfo id="17" depart="34.00" departLane="59410419#1_0" departPos="5.10" departSpeed="0.00" departDelay="0.00" arrival="235.00" arrivalLane="316764838#0_1" arrivalPos="0.20" arrivalSpeed="7.16" duration="201.00" routeLength="378.70" waitingTime="156.00" waitingCount="2" stopTime="0.00" timeLoss="183.55" rerouteNo="1" devices="tripinfo_17 routing_17" vType="DEFAULT_VEHTYPE" speedFactor="0.94" vaporized=""/>
    <tripinfo id="24" depart="48.00" departLane="1051441726#4_0" departPos="0.20" departSpeed="0.00" departDelay="0.00" arrival="235.00" arrivalLane="805924007#0_0" arrivalPos="55.32" arrivalSpeed="20.57" duration="187.00" routeLength="912.47" waitingTime="91.00" waitingCount="4" stopTime="0.00" timeLoss="138.67" rerouteNo="1" devices="tripinfo_24 routing_24" vType="DEFAULT_VEHTYPE" speedFactor="0.83" vaporized=""/>
    <tripinfo id="117" depart="234.00" departLane="59673547#1_0" departPos="0.20" departSpeed="0.00" departDelay="0.00" arrival="235.00" arrivalLane="59673547#1_0" arrivalPos="0.20" arrivalSpeed="1.77" duration="1.00" routeLength="0.00" waitingTime="0.00" waitingCount="0" stopTime="0.00" timeLoss="0.87" rerouteNo="1" devices="tripinfo_117 routing_117" vType="DEFAULT_VEHTYPE" speedFactor="1.00" vaporized=""/>
    <tripinfo id="9" depart="18.00" departLane="4476711#6_0" departPos="5.10" departSpeed="0.00" departDelay="0.00" arrival="236.00" arrivalLane="-1106630540#1_0" arrivalPos="2.20" arrivalSpeed="18.36" duration="218.00" routeLength="567.43" waitingTime="151.00" waitingCount="3" stopTime="0.00" timeLoss="188.96" rerouteNo="1" devices="tripinfo_9 routing_9" vType="DEFAULT_VEHTYPE" speedFactor="0.86" vaporized=""/>
    <tripinfo id="3" depart="6.00" departLane="615645277#0_0" departPos="0.83" departSpeed="0.00" departDelay="0.00" arrival="237.00" arrivalLane="-24102433#4_0" arrivalPos="0.20" arrivalSpeed="6.68" duration="231.00" routeLength="952.56" waitingTime="137.00" waitingCount="5" stopTime="0.00" timeLoss="192.26" rerouteNo="1" devices="tripinfo_3 routing_3" vType="DEFAULT_VEHTYPE" speedFactor="1.08" vaporized=""/>
    <tripinfo id="68" depart="136.00" departLane="-833048839#0_0" departPos="5.10" departSpeed="0.00" departDelay="0.00" arrival="237.00" arrivalLane="1137122252#1_1" arrivalPos="0.20" arrivalSpeed="7.93" duration="101.00" routeLength="446.75" waitingTime="48.00" waitingCount="3" stopTime="0.00" timeLoss="84.26" rerouteNo="1" devices="tripinfo_68 routing_68" vType="DEFAULT_VEHTYPE" speedFactor="1.04" vaporized=""/>
    <tripinfo id="113" depart="226.00" departLane="-24090845#7_0" departPos="0.20" departSpeed="0.00" departDelay="0.00" arrival="254.00" arrivalLane="24090845#3_0" arrivalPos="42.57" arrivalSpeed="22.03" duration="28.00" routeLength="299.81" waitingTime="0.00" waitingCount="0" stopTime="0.00" timeLoss="13.32" rerouteNo="1" devices="tripinfo_113 routing_113" vType="DEFAULT_VEHTYPE" speedFactor="1.01" vaporized=""/>
    <tripinfo id="16" depart="32.00" departLane="4630404#4_0" departPos="0.20" departSpeed="0.00" departDelay="0.00" arrival="276.00" arrivalLane="381820996#3_3" arrivalPos="0.20" arrivalSpeed="4.27" duration="244.00" routeLength="648.61" waitingTime="155.00" waitingCount="7" stopTime="0.00" timeLoss="213.79" rerouteNo="1" devices="tripinfo_16 routing_16" vType="DEFAULT_VEHTYPE" speedFactor="0.88" vaporized=""/>
    <tripinfo id="43" depart="86.00" departLane="445290295#0_0" departPos="0.20" departSpeed="0.00" departDelay="0.00" arrival="283.00" arrivalLane="236157423#0_0" arrivalPos="65.39" arrivalSpeed="13.44" duration="197.00" routeLength="914.83" waitingTime="93.00" waitingCount="4" stopTime="0.00" timeLoss="152.84" rerouteNo="1" devices="tripinfo_43 routing_43" vType="DEFAULT_VEHTYPE" speedFactor="1.04" vaporized=""/>
    <tripinfo id="23" depart="46.00" departLane="1287862806_0" departPos="0.20" departSpeed="0.00" departDelay="0.00" arrival="284.00" arrivalLane="1002803297#1_2" arrivalPos="30.23" arrivalSpeed="11.77" duration="238.00" routeLength="922.77" waitingTime="159.00" waitingCount="4" stopTime="0.00" timeLoss="196.72" rerouteNo="1" devices="tripinfo_23 routing_23" vType="DEFAULT_VEHTYPE" speedFactor="0.89" vaporized=""/>
    <tripinfo id="10" depart="20.00" departLane="4476711#3_0" departPos="0.20" departSpeed="0.00" departDelay="0.00" arrival="285.00" arrivalLane="435724011#0_0" arrivalPos="40.46" arrivalSpeed="19.16" duration="265.00" routeLength="820.73" waitingTime="183.00" waitingCount="4" stopTime="0.00" timeLoss="231.85" rerouteNo="1" devices="tripinfo_10 routing_10" vType="DEFAULT_VEHTYPE" speedFactor="1.09" vaporized=""/>
    <tripinfo id="58" depart="116.00" departLane="-1194188298#1_0" departPos="5.10" departSpeed="0.00" departDelay="0.00" arrival="285.00" arrivalLane="793372646#2_1" arrivalPos="0.20" arrivalSpeed="10.64" duration="169.00" routeLength="544.32" waitingTime="91.00" waitingCount="6" stopTime="0.00" timeLoss="145.76" rerouteNo="1" devices="tripinfo_58 routing_58" vType="DEFAULT_VEHTYPE" speedFactor="1.02" vaporized=""/>
    <tripinfo id="101" depart="202.00" departLane="313874093#1_0" departPos="5.10" departSpeed="0.00" departDelay="0.00" arrival="289.00" arrivalLane="435724088#0_0" arrivalPos="18.47" arrivalSpeed="19.43" duration="87.00" routeLength="464.43" waitingTime="35.00" waitingCount="2" stopTime="0.00" timeLoss="61.36" rerouteNo="1" devices="tripinfo_101 routing_101" vType="DEFAULT_VEHTYPE" speedFactor="0.96" vaporized=""/>
    <tripinfo id="125" depart="251.00" departLane="-316762111#1_0" departPos="5.10" departSpeed="0.00" departDelay="1.00" arrival="290.00" arrivalLane="316762110#4_0" arrivalPos="26.58" arrivalSpeed="21.29" duration="39.00" routeLength="268.02" waitingTime="9.00" waitingCount="1" stopTime="0.00" timeLoss="28.71" rerouteNo="1" devices="tripinfo_125 routing_125" vType="DEFAULT_VEHTYPE" speedFactor="1.15" vaporized=""/>
    <tripinfo id="28" depart="56.00" departLane="973275640#1_0" departPos="0.11" departSpeed="0.00" departDelay="0.00" arrival="291.00" arrivalLane="433783096#1_2" arrivalPos="0.20" arrivalSpeed="21.58" duration="235.00" routeLength="714.81" waitingTime="153.00" waitingCount="4" stopTime="0.00" timeLoss="208.05" rerouteNo="1" devices="tripinfo_28 routing_28" vType="DEFAULT_VEHTYPE" speedFactor="1.13" vaporized=""/>
    <tripinfo id="73" depart="146.00" departLane="59407132#3_0" departPos="5.10" departSpeed="0.00" departDelay="0.00" arrival="301.00" arrivalLane="-24090845#6_0" arrivalPos="18.89" arrivalSpeed="20.88" duration="155.00" routeLength="360.84" waitingTime="99.00" waitingCount="5" stopTime="0.00" timeLoss="135.95" rerouteNo="1" devices="tripinfo_73 routing_73" vType="DEFAULT_VEHTYPE" speedFactor="1.06" vaporized=""/>
    <tripinfo id="72" depart="144.00" departLane="-24090845#5_0" departPos="0.38" departSpeed="0.00" departDelay="0.00" arrival="304.00" arrivalLane="433783093#0_0" arrivalPos="0.20" arrivalSpeed="25.31" duration="160.00" routeLength="500.54" waitingTime="89.00" waitingCount="5" stopTime="0.00" timeLoss="135.70" rerouteNo="1" devices="tripinfo_72 routing_72" vType="DEFAULT_VEHTYPE" speedFactor="0.94" vaporized=""/>
    <tripinfo id="71" depart="142.00" departLane="1049318466#0_0" departPos="5.10" departSpeed="0.00" departDelay="0.00" arrival="306.00" arrivalLane="1035941401#1_2" arrivalPos="0.20" arrivalSpeed="23.60" duration="164.00" routeLength="660.82" waitingTime="88.00" waitingCount="3" stopTime="0.00" timeLoss="138.25" rerouteNo="1" devices="tripinfo_71 routing_71" vType="DEFAULT_VEHTYPE" speedFactor="0.97" vaporized=""/>
    <tripinfo id="115" depart="230.00" departLane="-24090845#7_0" departPos="0.20" departSpeed="0.00" departDelay="0.00" arrival="316.00" arrivalLane="1028907899#1_0" arrivalPos="0.20" arrivalSpeed="13.52" duration="86.00" routeLength="659.49" waitingTime="12.00" waitingCount="2" stopTime="0.00" timeLoss="55.44" rerouteNo="1" devices="tripinfo_115 routing_115" vType="DEFAULT_VEHTYPE" speedFactor="0.92" vaporized=""/>
    <tripinfo id="35" depart="70.00" departLane="657718778#2_0" departPos="5.10" departSpeed="0.00" departDelay="0.00" arrival="322.00" arrivalLane="24090845#3_0" arrivalPos="42.57" arrivalSpeed="21.90" duration="252.00" routeLength="783.42" waitingTime="161.00" waitingCount="4" stopTime="0.00" timeLoss="218.33" rerouteNo="1" devices="tripinfo_35 routing_35" vType="DEFAULT_VEHTYPE" speedFactor="1.02" vaporized=""/>
    <tripinfo id="53" depart="106.00" departLane="1067743360#6_0" departPos="0.24" departSpeed="0.00" departDelay="0.00" arrival="343.00" arrivalLane="433783095#2_0" arrivalPos="0.20" arrivalSpeed="5.63" duration="237.00" routeLength="581.43" waitingTime="156.00" waitingCount="4" stopTime="0.00" timeLoss="215.32" rerouteNo="1" devices="tripinfo_53 routing_53" vType="DEFAULT_VEHTYPE" speedFactor="1.10" vaporized=""/>
    <tripinfo id="87" depart="174.00" departLane="23825858#0_0" departPos="5.10" departSpeed="0.00" departDelay="0.00" arrival="347.00" arrivalLane="59667608_0" arrivalPos="0.20" arrivalSpeed="9.25" duration="173.00" routeLength="516.75" waitingTime="111.00" waitingCount="4" stopTime="0.00" timeLoss="144.71" rerouteNo="1" devices="tripinfo_87 routing_87" vType="DEFAULT_VEHTYPE" speedFactor="1.04" vaporized=""/>
    <tripinfo id="34" depart="68.00" departLane="59670543#1_0" departPos="5.10" departSpeed="0.00" departDelay="0.00" arrival="348.00" arrivalLane="1190700428#0_0" arrivalPos="0.20" arrivalSpeed="6.10" duration="280.00" routeLength="1350.95" waitingTime="145.00" waitingCount="8" stopTime="0.00" timeLoss="223.37" rerouteNo="1" devices="tripinfo_34 routing_34" vType="DEFAULT_VEHTYPE" speedFactor="0.99" vaporized=""/>
    <tripinfo id="106" depart="212.00" departLane="319345471#1_0" departPos="5.10" departSpeed="0.00" departDelay="0.00" arrival="351.00" arrivalLane="433784889#2_1" arrivalPos="24.28" arrivalSpeed="15.96" duration="139.00" routeLength="509.48" waitingTime="74.00" waitingCount="3" stopTime="0.00" timeLoss="117.45" rerouteNo="1" devices="tripinfo_106 routing_106" vType="DEFAULT_VEHTYPE" speedFactor="1.01" vaporized=""/>
    <tripinfo id="20" depart="40.00" departLane="-24091488#3_0" departPos="5.10" departSpeed="0.00" departDelay="0.00" arrival="352.00" arrivalLane="1049318468#2_0" arrivalPos="0.20" arrivalSpeed="15.82" duration="312.00" routeLength="1243.70" waitingTime="169.00" waitingCount="6" stopTime="0.00" timeLoss="261.02" rerouteNo="1" devices="tripinfo_20 routing_20" vType="DEFAULT_VEHTYPE" speedFactor="1.02" vaporized=""/>
    <tripinfo id="49" depart="98.00" departLane="24071819#1_0" departPos="5.10" departSpeed="0.00" departDelay="0.00" arrival="353.00" arrivalLane="841064474#2_3" arrivalPos="0.30" arrivalSpeed="18.39" duration="255.00" routeLength="518.58" waitingTime="196.00" waitingCount="4" stopTime="0.00" timeLoss="228.30" rerouteNo="1" devices="tripinfo_49 routing_49" vType="DEFAULT_VEHTYPE" speedFactor="0.85" vaporized=""/>
    <tripinfo id="62" depart="124.00" departLane="-24102433#2_0" departPos="0.25" departSpeed="0.00" departDelay="0.00" arrival="354.00" arrivalLane="24213759#4_1" arrivalPos="0.20" arrivalSpeed="21.18" duration="230.00" routeLength="589.13" waitingTime="148.00" waitingCount="6" stopTime="0.00" timeLoss="202.50" rerouteNo="1" devices="tripinfo_62 routing_62" vType="DEFAULT_VEHTYPE" speedFactor="1.02" vaporized=""/>
    <tripinfo id="37" depart="74.00" departLane="316762111#0_0" departPos="0.20" departSpeed="0.00" departDelay="0.00" arrival="355.00" arrivalLane="1051441726#6_0" arrivalPos="20.64" arrivalSpeed="11.05" duration="281.00" routeLength="1310.45" waitingTime="142.00" waitingCount="7" stopTime="0.00" timeLoss="237.61" rerouteNo="1" devices="tripinfo_37 routing_37" vType="DEFAULT_VEHTYPE" speedFactor="1.18" vaporized=""/>
    <tripinfo id="91" depart="182.00" departLane="5263032#2_0" departPos="5.10" departSpeed="0.00" departDelay="0.00" arrival="355.00" arrivalLane="-519223973#1_1" arrivalPos="0.20" arrivalSpeed="2.31" duration="173.00" routeLength="565.74" waitingTime="100.00" waitingCount="4" stopTime="0.00" timeLoss="146.57" rerouteNo="1" devices="tripinfo_91 routing_91" vType="DEFAULT_VEHTYPE" speedFactor="0.89" vaporized=""/>
    <tripinfo id="50" depart="100.00" departLane="59670543#1_0" departPos="5.10" departSpeed="0.00" departDelay="0.00" arrival="356.00" arrivalLane="1051441726#7_0" arrivalPos="49.39" arrivalSpeed="17.54" duration="256.00" routeLength="1154.21" waitingTime="139.00" waitingCount="5" stopTime="0.00" timeLoss="199.28" rerouteNo="1" devices="tripinfo_50 routing_50" vType="DEFAULT_VEHTYPE" speedFactor="0.85" vaporized=""/>
    <tripinfo id="66" depart="132.00" departLane="1051441726#3_0" departPos="5.10" departSpeed="0.00" departDelay="0.00" arrival="357.00" arrivalLane="59670543#0_0" arrivalPos="0.73" arrivalSpeed="4.67" duration="225.00" routeLength="909.34" waitingTime="126.00" waitingCount="7" stopTime="0.00" timeLoss="185.32" rerouteNo="1" devices="tripinfo_66 routing_66" vType="DEFAULT_VEHTYPE" speedFactor="0.91" vaporized=""/>
    <tripinfo id="0" depart="0.00" departLane="433783094#0_0" departPos="5.10" departSpeed="0.00" departDelay="0.00" arrival="358.00" arrivalLane="-1217799538_0" arrivalPos="0.20" arrivalSpeed="3.60" duration="358.00" routeLength="1010.93" waitingTime="243.00" waitingCount="8" stopTime="0.00" timeLoss="319.71" rerouteNo="1" devices="tripinfo_0 routing_0" vType="DEFAULT_VEHTYPE" speedFactor="1.06" vaporized=""/>
    <tripinfo id="13" depart="26.00" departLane="-292339723#4_0" departPos="5.10" departSpeed="0.00" departDelay="0.00" arrival="359.00" arrivalLane="-294712584#1_1" arrivalPos="9.30" arrivalSpeed="6.13" duration="333.00" routeLength="667.07" waitingTime="246.00" waitingCount="5" stopTime="0.00" timeLoss="308.84" rerouteNo="1" devices="tripinfo_13 routing_13" vType="DEFAULT_VEHTYPE" speedFactor="1.12" vaporized=""/>
    <tripinfo id="63" depart="126.00" departLane="-24090845#4_0" departPos="0.20" departSpeed="0.00" departDelay="0.00" arrival="360.00" arrivalLane="435724099#0_0" arrivalPos="13.16" arrivalSpeed="17.48" duration="234.00" routeLength="669.54" waitingTime="156.00" waitingCount="4" stopTime="0.00" timeLoss="202.79" rerouteNo="1" devices="tripinfo_63 routing_63" vType="DEFAULT_VEHTYPE" speedFactor="0.99" vaporized=""/>
    <tripinfo id="112" depart="224.00" departLane="1127665632#2_0" departPos="5.10" departSpeed="0.00" departDelay="0.00" arrival="360.00" arrivalLane="435724090#0_0" arrivalPos="18.34" arrivalSpeed="10.94" duration="136.00" routeLength="346.06" waitingTime="91.00" waitingCount="3" stopTime="0.00" timeLoss="121.79" rerouteNo="1" devices="tripinfo_112 routing_112" vType="DEFAULT_VEHTYPE" speedFactor="1.10" vaporized=""/>
    <tripinfo id="12" depart="24.00" departLane="906195085_0" departPos="5.10" departSpeed="0.00" departDelay="0.00" arrival="361.00" arrivalLane="1191329603_0" arrivalPos="0.20" arrivalSpeed="14.74" duration="337.00" routeLength="1385.90" waitingTime="178.00" waitingCount="5" stopTime="0.00" timeLoss="284.49" rerouteNo="1" devices="tripinfo_12 routing_12" vType="DEFAULT_VEHTYPE" speedFactor="1.05" vaporized=""/>
    <tripinfo id="27" depart="54.00" departLane="-445290295#2_0" departPos="0.20" departSpeed="0.00" departDelay="0.00" arrival="364.00" arrivalLane="1351951431#6_0" arrivalPos="48.17" arrivalSpeed="5.71" duration="310.00" routeLength="898.40" waitingTime="197.00" waitingCount="8" stopTime="0.00" timeLoss="273.83" rerouteNo="1" devices="tripinfo_27 routing_27" vType="DEFAULT_VEHTYPE" speedFactor="0.95" vaporized=""/>
    <tripinfo id="7" depart="14.00" departLane="433783097#2_0" departPos="5.10" departSpeed="0.00" departDelay="0.00" arrival="366.00" arrivalLane="315828468#1_1" arrivalPos="7.35" arrivalSpeed="12.20" duration="352.00" routeLength="1025.26" waitingTime="242.00" waitingCount="5" stopTime="0.00" timeLoss="308.13" rerouteNo="1" devices="tripinfo_7 routing_7" vType="DEFAULT_VEHTYPE" speedFactor="0.89" vaporized=""/>
    <tripinfo id="85" depart="170.00" departLane="236157091#1_0" departPos="5.10" departSpeed="0.00" departDelay="0.00" arrival="366.00" arrivalLane="1051441730#0_1" arrivalPos="27.30" arrivalSpeed="22.27" duration="196.00" routeLength="671.98" waitingTime="117.00" waitingCount="4" stopTime="0.00" timeLoss="153.09" rerouteNo="1" devices="tripinfo_85 routing_85" vType="DEFAULT_VEHTYPE" speedFactor="0.98" vaporized=""/>
    <tripinfo id="165" depart="330.00" departLane="312901458#1_0" departPos="4.96" departSpeed="0.00" departDelay="0.00" arrival="366.00" arrivalLane="435724044#0_2" arrivalPos="0.20" arrivalSpeed="24.10" duration="36.00" routeLength="428.99" waitingTime="0.00" waitingCount="0" stopTime="0.00" timeLoss="17.11" rerouteNo="1" devices="tripinfo_165 routing_165" vType="DEFAULT_VEHTYPE" speedFactor="0.91" vaporized=""/>
    <tripinfo id="175" depart="351.00" departLane="-1033716708#0_0" departPos="0.20" departSpeed="0.00" departDelay="1.00" arrival="373.00" arrivalLane="1067743360#11_1" arrivalPos="10.88" arrivalSpeed="8.37" duration="22.00" routeLength="134.52" waitingTime="3.00" waitingCount="1" stopTime="0.00" timeLoss="14.47" rerouteNo="1" devices="tripinfo_175 routing_175" vType="DEFAULT_VEHTYPE" speedFactor="0.92" vaporized=""/>
    <tripinfo id="67" depart="134.00" departLane="313874092_0" departPos="5.10" departSpeed="0.00" departDelay="0.00" arrival="375.00" arrivalLane="435724069#1_1" arrivalPos="30.47" arrivalSpeed="10.95" duration="241.00" routeLength="479.14" waitingTime="168.00" waitingCount="6" stopTime="0.00" timeLoss="215.96" rerouteNo="1" devices="tripinfo_67 routing_67" vType="DEFAULT_VEHTYPE" speedFactor="0.91" vaporized=""/>
    <tripinfo id="46" depart="92.00" departLane="-1127665632#0_0" departPos="0.20" departSpeed="0.00" departDelay="0.00" arrival="378.00" arrivalLane="435724044#1_1" arrivalPos="17.37" arrivalSpeed="26.99" duration="286.00" routeLength="740.57" waitingTime="218.00" waitingCount="3" stopTime="0.00" timeLoss="259.24" rerouteNo="1" devices="tripinfo_46 routing_46" vType="DEFAULT_VEHTYPE" speedFactor="1.00" vaporized=""/>
    <tripinfo id="65" depart="130.00" departLane="24091488#0_0" departPos="0.20" departSpeed="0.00" departDelay="0.00" arrival="379.00" arrivalLane="316762110#1_0" arrivalPos="32.23" arrivalSpeed="13.40" duration="249.00" routeLength="699.58" waitingTime="177.00" waitingCount="4" stopTime="0.00" timeLoss="216.23" rerouteNo="1" devices="tripinfo_65 routing_65" vType="DEFAULT_VEHTYPE" speedFactor="0.88" vaporized=""/>
    <tripinfo id="36" depart="72.00" departLane="1051441726#2_0" departPos="5.10" departSpeed="0.00" departDelay="0.00" arrival="386.00" arrivalLane="1049318472#0_0" arrivalPos="27.12" arrivalSpeed="3.56" duration="314.00" routeLength="1353.01" waitingTime="186.00" waitingCount="7" stopTime="0.00" timeLoss="261.43" rerouteNo="1" devices="tripinfo_36 routing_36" vType="DEFAULT_VEHTYPE" speedFactor="0.97" vaporized=""/>
    <tripinfo id="141" depart="282.00" departLane="145846251#1_0" departPos="5.10" departSpeed="0.00" departDelay="0.00" arrival="406.00" arrivalLane="381820998#1_1" arrivalPos="0.20" arrivalSpeed="3.66" duration="124.00" routeLength="185.98" waitingTime="95.00" waitingCount="2" stopTime="0.00" timeLoss="118.16" rerouteNo="1" devices="tripinfo_141 routing_141" vType="DEFAULT_VEHTYPE" speedFactor="1.16" vaporized=""/>
    <tripinfo id="22" depart="44.00" departLane="433781990#0_0" departPos="5.10" departSpeed="0.00" departDelay="0.00" arrival="407.00" arrivalLane="134319745#0_0" arrivalPos="0.20" arrivalSpeed="6.21" duration="363.00" routeLength="550.92" waitingTime="285.00" waitingCount="6" stopTime="0.00" timeLoss="339.33" rerouteNo="1" devices="tripinfo_22 routing_22" vType="DEFAULT_VEHTYPE" speedFactor="0.97" vaporized=""/>
    <tripinfo id="97" depart="194.00" departLane="906195085_0" departPos="5.10" departSpeed="0.00" departDelay="0.00" arrival="407.00" arrivalLane="991855435#0_1" arrivalPos="0.20" arrivalSpeed="4.99" duration="213.00" routeLength="1014.15" waitingTime="106.00" waitingCount="5" stopTime="0.00" timeLoss="168.91" rerouteNo="1" devices="tripinfo_97 routing_97" vType="DEFAULT_VEHTYPE" speedFactor="0.91" vaporized=""/>
    <tripinfo id="108" depart="216.00" departLane="319345471#0_0" departPos="0.10" departSpeed="0.00" departDelay="0.00" arrival="411.00" arrivalLane="381820998#0_1" arrivalPos="0.20" arrivalSpeed="3.77" duration="195.00" routeLength="577.06" waitingTime="116.00" waitingCount="5" stopTime="0.00" timeLoss="173.62" rerouteNo="1" devices="tripinfo_108 routing_108" vType="DEFAULT_VEHTYPE" speedFactor="1.06" vaporized=""/>
    <tripinfo id="51" depart="102.00" departLane="24613631#0_0" departPos="0.20" departSpeed="0.00" departDelay="0.00" arrival="413.00" arrivalLane="-59667619#5_0" arrivalPos="18.60" arrivalSpeed="11.34" duration="311.00" routeLength="597.84" waitingTime="231.00" waitingCount="6" stopTime="0.00" timeLoss="290.39" rerouteNo="1" devices="tripinfo_51 routing_51" vType="DEFAULT_VEHTYPE" speedFactor="1.17" vaporized=""/>