<?xml version="1.0" encoding="UTF-8"?>

<!-- generated on 2026-04-14T14:09:43.390953+00:00 by Eclipse SUMO GUI 1.26.0
<sumoConfiguration xmlns:xsi="http://www.w3.org/2001/XMLSchema-instance" xsi:noNamespaceSchemaLocation="http://sumo.dlr.de/xsd/sumoConfiguration.xsd">

    <input>
        <net-file value="simulation/configs/../network/chicago.net.xml"/>
        <route-files value="simulation/configs/../routes/chicago_medium.rou.xml"/>
    </input>

    <output>
        <tripinfo-output value="simulation/configs/../../results/tripinfo_rl_medium_improved.xml"/>
        <edgedata-output value="simulation/configs/../../results/edge_rl_medium_improved.xml"/>
    </output>

    <time>
        <begin value="0"/>
        <end value="3600"/>
    </time>

    <traci_server>
        <remote-port value="63010"/>
    </traci_server>

</sumoConfiguration>
-->

<tripinfos xmlns:xsi="http://www.w3.org/2001/XMLSchema-instance" xsi:noNamespaceSchemaLocation="http://sumo.dlr.de/xsd/tripinfo_file.xsd">
    <tripinfo id="2" depart="4.00" departLane="435724069#1_0" departPos="5.10" departSpeed="0.00" departDelay="0.00" arrival="69.00" arrivalLane="433784889#3_1" arrivalPos="0.20" arrivalSpeed="26.84" duration="65.00" routeLength="540.14" waitingTime="13.00" waitingCount="1" stopTime="0.00" timeLoss="42.69" rerouteNo="1" devices="tripinfo_2 routing_2" vType="DEFAULT_VEHTYPE" speedFactor="1.01" vaporized=""/>
    <tripinfo id="18" depart="36.00" departLane="435724011#1_0" departPos="0.20" departSpeed="0.00" departDelay="0.00" arrival="100.00" arrivalLane="-236157125#4_2" arrivalPos="0.20" arrivalSpeed="11.66" duration="64.00" routeLength="155.98" waitingTime="41.00" waitingCount="3" stopTime="0.00" timeLoss="49.66" rerouteNo="1" devices="tripinfo_18 routing_18" vType="DEFAULT_VEHTYPE" speedFactor="0.94" vaporized=""/>
    <tripinfo id="8" depart="16.00" departLane="1033716708#0_0" departPos="0.20" departSpeed="0.00" departDelay="0.00" arrival="104.00" arrivalLane="319345472#0_0" arrivalPos="43.93" arrivalSpeed="14.81" duration="88.00" routeLength="519.34" waitingTime="26.00" waitingCount="3" stopTime="0.00" timeLoss="61.66" rerouteNo="1" devices="tripinfo_8 routing_8" vType="DEFAULT_VEHTYPE" speedFactor="0.94" vaporized=""/>
    <tripinfo id="26" depart="52.00" departLane="-519223975_0" departPos="0.20" departSpeed="0.00" departDelay="0.00" arrival="120.00" arrivalLane="435724069#1_0" arrivalPos="30.47" arrivalSpeed="11.07" duration="68.00" routeLength="128.41" waitingTime="42.00" waitingCount="2" stopTime="0.00" timeLoss="57.12" rerouteNo="1" devices="tripinfo_26 routing_26" vType="DEFAULT_VEHTYPE" speedFactor="0.92" vaporized=""/>
    <tripinfo id="10" depart="20.00" departLane="4476711#3_0" departPos="0.20" departSpeed="0.00" departDelay="0.00" arrival="121.00" arrivalLane="435724011#0_0" arrivalPos="40.46" arrivalSpeed="19.34" duration="101.00" routeLength="820.73" waitingTime="23.00" waitingCount="3" stopTime="0.00" timeLoss="68.05" rerouteNo="1" devices="tripinfo_10 routing_10" vType="DEFAULT_VEHTYPE" speedFactor="1.09" vaporized=""/>
    <tripinfo id="19" depart="38.00" departLane="1038761526#0_0" departPos="5.10" departSpeed="0.00" departDelay="0.00" arrival="123.00" arrivalLane="1067743360#3_0" arrivalPos="0.20" arrivalSpeed="15.94" duration="85.00" routeLength="505.02" waitingTime="27.00" waitingCount="3" stopTime="0.00" timeLoss="66.83" rerouteNo="1" devices="tripinfo_19 routing_19" vType="DEFAULT_VEHTYPE" speedFactor="1.16" vaporized=""/>
    <tripinfo id="7" depart="14.00" departLane="433783097#2_0" departPos="5.10" departSpeed="0.00" departDelay="0.00" arrival="128.00" arrivalLane="315828468#1_1" arrivalPos="7.35" arrivalSpeed="12.52" duration="114.00" routeLength="1025.26" waitingTime="21.00" waitingCount="3" stopTime="0.00" timeLoss="70.01" rerouteNo="1" devices="tripinfo_7 routing_7" vType="DEFAULT_VEHTYPE" speedFactor="0.89" vaporized=""/>
    <tripinfo id="5" depart="10.00" departLane="1028907899#1_0" departPos="0.20" departSpeed="0.00" departDelay="0.00" arrival="132.00" arrivalLane="292339723#1_0" arrivalPos="20.67" arrivalSpeed="11.02" duration="122.00" routeLength="716.45" waitingTime="40.00" waitingCount="4" stopTime="0.00" timeLoss="86.45" rerouteNo="1" devices="tripinfo_5 routing_5" vType="DEFAULT_VEHTYPE" speedFactor="0.83" vaporized=""/>
    <tripinfo id="14" depart="28.00" departLane="4476711#4_0" departPos="0.20" departSpeed="0.00" departDelay="0.00" arrival="133.00" arrivalLane="435724069#1_0" arrivalPos="30.47" arrivalSpeed="13.72" duration="105.00" routeLength="506.52" waitingTime="40.00" waitingCount="3" stopTime="0.00" timeLoss="80.23" rerouteNo="1" devices="tripinfo_14 routing_14" vType="DEFAULT_VEHTYPE" speedFactor="0.99" vaporized=""/>
    <tripinfo id="60" depart="120.00" departLane="1106630540#2_0" departPos="5.10" departSpeed="0.00" departDelay="0.00" arrival="147.00" arrivalLane="-24071819#0_0" arrivalPos="0.20" arrivalSpeed="4.02" duration="27.00" routeLength="161.06" waitingTime="5.00" waitingCount="1" stopTime="0.00" timeLoss="19.66" rerouteNo="1" devices="tripinfo_60 routing_60" vType="DEFAULT_VEHTYPE" speedFactor="1.08" vaporized=""/>
    <tripinfo id="17" depart="34.00" departLane="59410419#1_0" departPos="5.10" departSpeed="0.00" departDelay="0.00" arrival="151.00" arrivalLane="316764838#0_1" arrivalPos="0.20" arrivalSpeed="8.01" duration="117.00" routeLength="378.70" waitingTime="64.00" waitingCount="2" stopTime="0.00" timeLoss="99.59" rerouteNo="1" devices="tripinfo_17 routing_17" vType="DEFAULT_VEHTYPE" speedFactor="0.94" vaporized=""/>
    <tripinfo id="41" depart="82.00" departLane="-292339723#2_0" departPos="5.10" departSpeed="0.00" departDelay="0.00" arrival="152.00" arrivalLane="-23825858#0_0" arrivalPos="17.42" arrivalSpeed="18.05" duration="70.00" routeLength="147.20" waitingTime="50.00" waitingCount="1" stopTime="0.00" timeLoss="64.35" rerouteNo="1" devices="tripinfo_41 routing_41" vType="DEFAULT_VEHTYPE" speedFactor="0.96" vaporized=""/>
    <tripinfo id="31" depart="62.00" departLane="1038761526#1_0" departPos="0.20" departSpeed="0.00" departDelay="0.00" arrival="156.00" arrivalLane="-134319745#1_0" arrivalPos="54.20" arrivalSpeed="23.71" duration="94.00" routeLength="515.94" waitingTime="37.00" waitingCount="4" stopTime="0.00" timeLoss="74.01" rerouteNo="1" devices="tripinfo_31 routing_31" vType="DEFAULT_VEHTYPE" speedFactor="1.15" vaporized=""/>
    <tripinfo id="3" depart="6.00" departLane="615645277#0_0" departPos="0.83" departSpeed="0.00" departDelay="0.00" arrival="162.00" arrivalLane="-24102433#4_0" arrivalPos="0.20" arrivalSpeed="5.72" duration="156.00" routeLength="952.56" waitingTime="48.00" waitingCount="6" stopTime="0.00" timeLoss="117.21" rerouteNo="1" devices="tripinfo_3 routing_3" vType="DEFAULT_VEHTYPE" speedFactor="1.08" vaporized=""/>
    <tripinfo id="9" depart="18.00" departLane="4476711#6_0" departPos="5.10" departSpeed="0.00" departDelay="0.00" arrival="167.00" arrivalLane="-1106630540#1_0" arrivalPos="2.20" arrivalSpeed="17.83" duration="149.00" routeLength="567.43" waitingTime="96.00" waitingCount="2" stopTime="0.00" timeLoss="119.60" rerouteNo="1" devices="tripinfo_9 routing_9" vType="DEFAULT_VEHTYPE" speedFactor="0.86" vaporized=""/>
    <tripinfo id="6" depart="12.00" departLane="-1287862797_0" departPos="0.20" departSpeed="0.00" departDelay="0.00" arrival="175.00" arrivalLane="-833048839#3_0" arrivalPos="1.19" arrivalSpeed="9.98" duration="163.00" routeLength="430.60" waitingTime="113.00" waitingCount="3" stopTime="0.00" timeLoss="148.17" rerouteNo="1" devices="tripinfo_6 routing_6" vType="DEFAULT_VEHTYPE" speedFactor="1.05" vaporized=""/>
    <tripinfo id="69" depart="138.00" departLane="23700520#4_0" departPos="5.10" departSpeed="0.00" departDelay="0.00" arrival="179.00" arrivalLane="294582657#5_1" arrivalPos="36.75" arrivalSpeed="20.19" duration="41.00" routeLength="370.96" waitingTime="2.00" waitingCount="1" stopTime="0.00" timeLoss="21.28" rerouteNo="1" devices="tripinfo_69 routing_69" vType="DEFAULT_VEHTYPE" speedFactor="1.02" vaporized=""/>
    <tripinfo id="16" depart="32.00" departLane="4630404#4_0" departPos="0.20" departSpeed="0.00" departDelay="0.00" arrival="181.00" arrivalLane="381820996#3_3" arrivalPos="0.20" arrivalSpeed="19.87" duration="149.00" routeLength="648.61" waitingTime="64.00" waitingCount="7" stopTime="0.00" timeLoss="118.89" rerouteNo="1" devices="tripinfo_16 routing_16" vType="DEFAULT_VEHTYPE" speedFactor="0.88" vaporized=""/>
    <tripinfo id="56" depart="113.00" departLane="435724109#2_0" departPos="0.20" departSpeed="0.00" departDelay="1.00" arrival="181.00" arrivalLane="294839950#4_1" arrivalPos="0.20" arrivalSpeed="20.12" duration="68.00" routeLength="562.38" waitingTime="14.00" waitingCount="2" stopTime="0.00" timeLoss="41.90" rerouteNo="1" devices="tripinfo_56 routing_56" vType="DEFAULT_VEHTYPE" speedFactor="0.90" vaporized=""/>
    <tripinfo id="39" depart="78.00" departLane="1449477173#4_0" departPos="5.10" departSpeed="0.00" departDelay="0.00" arrival="198.00" arrivalLane="1035941401#0_2" arrivalPos="53.95" arrivalSpeed="21.59" duration="120.00" routeLength="802.61" waitingTime="35.00" waitingCount="4" stopTime="0.00" timeLoss="85.59" rerouteNo="1" devices="tripinfo_39 routing_39" vType="DEFAULT_VEHTYPE" speedFactor="0.90" vaporized=""/>
    <tripinfo id="1" depart="2.00" departLane="1051441727#3_1" departPos="5.10" departSpeed="0.00" departDelay="0.00" arrival="202.00" arrivalLane="1038761526#1_1" arrivalPos="0.20" arrivalSpeed="3.26" duration="200.00" routeLength="678.16" waitingTime="109.00" waitingCount="7" stopTime="0.00" timeLoss="171.67" rerouteNo="1" devices="tripinfo_1 routing_1" vType="DEFAULT_VEHTYPE" speedFactor="0.94" vaporized=""/>
    <tripinfo id="64" depart="128.00" departLane="435724093#0_0" departPos="0.20" departSpeed="0.00" departDelay="0.00" arrival="205.00" arrivalLane="-433784890#0_0" arrivalPos="17.79" arrivalSpeed="10.32" duration="77.00" routeLength="277.82" waitingTime="39.00" waitingCount="2" stopTime="0.00" timeLoss="61.79" rerouteNo="1" devices="tripinfo_64 routing_64" vType="DEFAULT_VEHTYPE" speedFactor="0.94" vaporized=""/>
    <tripinfo id="15" depart="30.00" departLane="134319745#4_0" departPos="0.20" departSpeed="0.00" departDelay="0.00" arrival="209.00" arrivalLane="316762110#3_0" arrivalPos="27.81" arrivalSpeed="19.30" duration="179.00" routeLength="746.12" waitingTime="81.00" waitingCount="7" stopTime="0.00" timeLoss="142.70" rerouteNo="1" devices="tripinfo_15 routing_15" vType="DEFAULT_VEHTYPE" speedFactor="0.93" vaporized=""/>
    <tripinfo id="49" depart="98.00" departLane="24071819#1_0" departPos="5.10" departSpeed="0.00" departDelay="0.00" arrival="209.00" arrivalLane="841064474#2_3" arrivalPos="0.30" arrivalSpeed="17.55" duration="111.00" routeLength="518.58" waitingTime="40.00" waitingCount="5" stopTime="0.00" timeLoss="83.66" rerouteNo="1" devices="tripinfo_49 routing_49" vType="DEFAULT_VEHTYPE" speedFactor="0.85" vaporized=""/>
    <tripinfo id="68" depart="136.00" departLane="-833048839#0_0" departPos="5.10" departSpeed="0.00" departDelay="0.00" arrival="209.00" arrivalLane="1137122252#1_0" arrivalPos="0.20" arrivalSpeed="9.34" duration="73.00" routeLength="446.75" waitingTime="15.00" waitingCount="2" stopTime="0.00" timeLoss="56.07" rerouteNo="1" devices="tripinfo_68 routing_68" vType="DEFAULT_VEHTYPE" speedFactor="1.04" vaporized=""/>
    <tripinfo id="33" depart="66.00" departLane="-973275640#0_0" departPos="5.10" departSpeed="0.00" departDelay="0.00" arrival="211.00" arrivalLane="833035173#2_1" arrivalPos="8.00" arrivalSpeed="23.43" duration="145.00" routeLength="964.37" waitingTime="33.00" waitingCount="5" stopTime="0.00" timeLoss="105.24" rerouteNo="1" devices="tripinfo_33 routing_33" vType="DEFAULT_VEHTYPE" speedFactor="1.17" vaporized=""/>
    <tripinfo id="24" depart="48.00" departLane="1051441726#4_0" departPos="0.20" departSpeed="0.00" departDelay="0.00" arrival="213.00" arrivalLane="805924007#0_0" arrivalPos="55.32" arrivalSpeed="18.14" duration="165.00" routeLength="912.47" waitingTime="53.00" waitingCount="7" stopTime="0.00" timeLoss="117.65" rerouteNo="1" devices="tripinfo_24 routing_24" vType="DEFAULT_VEHTYPE" speedFactor="0.83" vaporized=""/>
    <tripinfo id="13" depart="26.00" departLane="-292339723#4_0" departPos="5.10" departSpeed="0.00" departDelay="0.00" arrival="214.00" arrivalLane="-294712584#1_1" arrivalPos="9.30" arrivalSpeed="4.70" duration="188.00" routeLength="667.07" waitingTime="103.00" waitingCount="6" stopTime="0.00" timeLoss="163.84" rerouteNo="1" devices="tripinfo_13 routing_13" vType="DEFAULT_VEHTYPE" speedFactor="1.12" vaporized=""/>
    <tripinfo id="35" depart="70.00" departLane="657718778#2_0" departPos="5.10" departSpeed="0.00" departDelay="0.00" arrival="221.00" arrivalLane="24090845#3_0" arrivalPos="42.57" arrivalSpeed="22.64" duration="151.00" routeLength="783.42" waitingTime="57.00" waitingCount="6" stopTime="0.00" timeLoss="116.40" rerouteNo="1" devices="tripinfo_35 routing_35" vType="DEFAULT_VEHTYPE" speedFactor="1.02" vaporized=""/>
    <tripinfo id="22" depart="44.00" departLane="433781990#0_0" departPos="5.10" departSpeed="0.00" departDelay="0.00" arrival="228.00" arrivalLane="134319745#0_0" arrivalPos="0.20" arrivalSpeed="5.74" duration="184.00" routeLength="550.92" waitingTime="99.00" waitingCount="8" stopTime="0.00" timeLoss="160.34" rerouteNo="1" devices="tripinfo_22 routing_22" vType="DEFAULT_VEHTYPE" speedFactor="0.97" vaporized=""/>
    <tripinfo id="46" depart="92.00" departLane="-1127665632#0_0" departPos="0.20" departSpeed="0.00" departDelay="0.00" arrival="231.00" arrivalLane="435724044#1_1" arrivalPos="17.37" arrivalSpeed="27.05" duration="139.00" routeLength="740.57" waitingTime="73.00" waitingCount="3" stopTime="0.00" timeLoss="112.09" rerouteNo="1" devices="tripinfo_46 routing_46" vType="DEFAULT_VEHTYPE" speedFactor="1.00" vaporized=""/>
    <tripinfo id="117" depart="234.00" departLane="59673547#1_0" departPos="0.20" departSpeed="0.00" departDelay="0.00" arrival="235.00" arrivalLane="59673547#1_0" arrivalPos="0.20" arrivalSpeed="1.43" duration="1.00" routeLength="0.00" waitingTime="0.00" waitingCount="0" stopTime="0.00" timeLoss="0.89" rerouteNo="1" devices="tripinfo_117 routing_117" vType="DEFAULT_VEHTYPE" speedFactor="1.00" vaporized=""/>
    <tripinfo id="4" depart="8.00" departLane="236157091#1_0" departPos="5.10" departSpeed="0.00" departDelay="0.00" arrival="236.00" arrivalLane="-1287862806_0" arrivalPos="0.20" arrivalSpeed="10.79" duration="228.00" routeLength="695.69" waitingTime="125.00" waitingCount="8" stopTime="0.00" timeLoss="196.60" rerouteNo="1" devices="tripinfo_4 routing_4" vType="DEFAULT_VEHTYPE" speedFactor="1.03" vaporized=""/>
    <tripinfo id="65" depart="130.00" departLane="24091488#0_0" departPos="0.20" departSpeed="0.00" departDelay="0.00" arrival="236.00" arrivalLane="316762110#1_0" arrivalPos="32.23" arrivalSpeed="11.71" duration="106.00" routeLength="699.58" waitingTime="32.00" waitingCount="4" stopTime="0.00" timeLoss="73.46" rerouteNo="1" devices="tripinfo_65 routing_65" vType="DEFAULT_VEHTYPE" speedFactor="0.88" vaporized=""/>
    <tripinfo id="43" depart="86.00" departLane="445290295#0_0" departPos="0.20" departSpeed="0.00" departDelay="0.00" arrival="237.00" arrivalLane="236157423#0_0" arrivalPos="65.39" arrivalSpeed="13.82" duration="151.00" routeLength="914.83" waitingTime="45.00" waitingCount="3" stopTime="0.00" timeLoss="106.81" rerouteNo="1" devices="tripinfo_43 routing_43" vType="DEFAULT_VEHTYPE" speedFactor="1.04" vaporized=""/>
    <tripinfo id="53" depart="106.00" departLane="1067743360#6_0" departPos="0.24" departSpeed="0.00" departDelay="0.00" arrival="240.00" arrivalLane="433783095#2_0" arrivalPos="0.20" arrivalSpeed="21.47" duration="134.00" routeLength="581.43" waitingTime="56.00" waitingCount="5" stopTime="0.00" timeLoss="111.50" rerouteNo="1" devices="tripinfo_53 routing_53" vType="DEFAULT_VEHTYPE" speedFactor="1.10" vaporized=""/>
    <tripinfo id="32" depart="64.00" departLane="1127665632#2_0" departPos="5.10" departSpeed="0.00" departDelay="0.00" arrival="242.00" arrivalLane="1051441727#3_1" arrivalPos="41.60" arrivalSpeed="21.66" duration="178.00" routeLength="1166.62" waitingTime="70.00" waitingCount="7" stopTime="0.00" timeLoss="129.95" rerouteNo="1" devices="tripinfo_32 routing_32" vType="DEFAULT_VEHTYPE" speedFactor="1.01" vaporized=""/>
    <tripinfo id="74" depart="149.00" departLane="1049318468#1_0" departPos="5.10" departSpeed="0.00" departDelay="1.00" arrival="244.00" arrivalLane="433784884#9_0" arrivalPos="44.91" arrivalSpeed="25.50" duration="95.00" routeLength="824.35" waitingTime="16.00" waitingCount="3" stopTime="0.00" timeLoss="62.50" rerouteNo="1" devices="tripinfo_74 routing_74" vType="DEFAULT_VEHTYPE" speedFactor="0.96" vaporized=""/>
    <tripinfo id="73" depart="146.00" departLane="59407132#3_0" departPos="5.10" departSpeed="0.00" departDelay="0.00" arrival="250.00" arrivalLane="-24090845#6_0" arrivalPos="18.89" arrivalSpeed="23.04" duration="104.00" routeLength="360.84" waitingTime="51.00" waitingCount="4" stopTime="0.00" timeLoss="85.12" rerouteNo="1" devices="tripinfo_73 routing_73" vType="DEFAULT_VEHTYPE" speedFactor="1.06" vaporized=""/>
    <tripinfo id="113" depart="226.00" departLane="-24090845#7_0" departPos="0.20" departSpeed="0.00" departDelay="0.00" arrival="255.00" arrivalLane="24090845#3_0" arrivalPos="42.57" arrivalSpeed="20.12" duration="29.00" routeLength="299.81" waitingTime="0.00" waitingCount="0" stopTime="0.00" timeLoss="14.03" rerouteNo="1" devices="tripinfo_113 routing_113" vType="DEFAULT_VEHTYPE" speedFactor="1.01" vaporized=""/>
    <tripinfo id="71" depart="142.00" departLane="1049318466#0_0" departPos="5.10" departSpeed="0.00" departDelay="0.00" arrival="262.00" arrivalLane="1035941401#1_2" arrivalPos="0.20" arrivalSpeed="3.92" duration="120.00" routeLength="660.82" waitingTime="42.00" waitingCount="4" stopTime="0.00" timeLoss="94.85" rerouteNo="1" devices="tripinfo_71 routing_71" vType="DEFAULT_VEHTYPE" speedFactor="0.97" vaporized=""/>
    <tripinfo id="37" depart="74.00" departLane="316762111#0_0" departPos="0.20" departSpeed="0.00" departDelay="0.00" arrival="267.00" arrivalLane="1051441726#6_0" arrivalPos="20.64" arrivalSpeed="11.00" duration="193.00" routeLength="1310.45" waitingTime="67.00" waitingCount="7" stopTime="0.00" timeLoss="150.08" rerouteNo="1" devices="tripinfo_37 routing_37" vType="DEFAULT_VEHTYPE" speedFactor="1.18" vaporized=""/>
    <tripinfo id="20" depart="40.00" departLane="-24091488#3_0" departPos="5.10" departSpeed="0.00" departDelay="0.00" arrival="268.00" arrivalLane="1049318468#2_0" arrivalPos="0.20" arrivalSpeed="17.26" duration="228.00" routeLength="1243.70" waitingTime="89.00" waitingCount="7" stopTime="0.00" timeLoss="178.48" rerouteNo="1" devices="tripinfo_20 routing_20" vType="DEFAULT_VEHTYPE" speedFactor="1.02" vaporized=""/>
    <tripinfo id="50" depart="100.00" departLane="59670543#1_0" departPos="5.10" departSpeed="0.00" departDelay="0.00" arrival="269.00" arrivalLane="1051441726#7_0" arrivalPos="49.39" arrivalSpeed="17.47" duration="169.00" routeLength="1154.21" waitingTime="45.00" waitingCount="6" stopTime="0.00" timeLoss="112.65" rerouteNo="1" devices="tripinfo_50 routing_50" vType="DEFAULT_VEHTYPE" speedFactor="0.85" vaporized=""/>
    <tripinfo id="62" depart="127.00" departLane="-24102433#2_0" departPos="0.25" departSpeed="0.00" departDelay="3.00" arrival="270.00" arrivalLane="24213759#4_1" arrivalPos="0.20" arrivalSpeed="21.37" duration="143.00" routeLength="589.13" waitingTime="56.00" waitingCount="8" stopTime="0.00" timeLoss="115.87" rerouteNo="1" devices="tripinfo_62 routing_62" vType="DEFAULT_VEHTYPE" speedFactor="1.02" vaporized=""/>
    <tripinfo id="27" depart="54.00" departLane="-445290295#2_0" departPos="0.20" departSpeed="0.00" departDelay="0.00" arrival="271.00" arrivalLane="1351951431#6_1" arrivalPos="48.17" arrivalSpeed="23.49" duration="217.00" routeLength="898.40" waitingTime="108.00" waitingCount="9" stopTime="0.00" timeLoss="179.82" rerouteNo="1" devices="tripinfo_27 routing_27" vType="DEFAULT_VEHTYPE" speedFactor="0.95" vaporized=""/>
    <tripinfo id="70" depart="140.00" departLane="1191328879#3_0" departPos="5.10" departSpeed="0.00" departDelay="0.00" arrival="271.00" arrivalLane="319345471#1_0" arrivalPos="47.44" arrivalSpeed="21.03" duration="131.00" routeLength="544.80" waitingTime="55.00" waitingCount="6" stopTime="0.00" timeLoss="108.44" rerouteNo="1" devices="tripinfo_70 routing_70" vType="DEFAULT_VEHTYPE" speedFactor="1.02" vaporized=""/>
    <tripinfo id="63" depart="126.00" departLane="-24090845#4_0" departPos="0.20" departSpeed="0.00" departDelay="0.00" arrival="276.00" arrivalLane="435724099#0_0" arrivalPos="13.16" arrivalSpeed="18.12" duration="150.00" routeLength="669.54" waitingTime="72.00" waitingCount="4" stopTime="0.00" timeLoss="118.22" rerouteNo="1" devices="tripinfo_63 routing_63" vType="DEFAULT_VEHTYPE" speedFactor="0.99" vaporized=""/>
    <tripinfo id="12" depart="24.00" departLane="906195085_0" departPos="5.10" departSpeed="0.00" departDelay="0.00" arrival="277.00" arrivalLane="1191329603_0" arrivalPos="0.20" arrivalSpeed="16.11" duration="253.00" routeLength="1385.90" waitingTime="83.00" waitingCount="10" stopTime="0.00" timeLoss="198.92" rerouteNo="1" devices="tripinfo_12 routing_12" vType="DEFAULT_VEHTYPE" speedFactor="1.05" vaporized=""/>
    <tripinfo id="85" depart="170.00" departLane="236157091#1_0" departPos="5.10" departSpeed="0.00" departDelay="0.00" arrival="281.00" arrivalLane="1051441730#0_1" arrivalPos="27.30" arrivalSpeed="21.97" duration="111.00" routeLength="671.98" waitingTime="44.00" waitingCount="2" stopTime="0.00" timeLoss="68.68" rerouteNo="1" devices="tripinfo_85 routing_85" vType="DEFAULT_VEHTYPE" speedFactor="0.98" vaporized=""/>
    <tripinfo id="125" depart="250.00" departLane="-316762111#1_0" departPos="5.10" departSpeed="0.00" departDelay="0.00" arrival="283.00" arrivalLane="316762110#4_0" arrivalPos="26.58" arrivalSpeed="22.57" duration="33.00" routeLength="268.02" waitingTime="3.00" waitingCount="1" stopTime="0.00" timeLoss="23.30" rerouteNo="1" devices="tripinfo_125 routing_125" vType="DEFAULT_VEHTYPE" speedFactor="1.15" vaporized=""/>
    <tripinfo id="91" depart="182.00" departLane="5263032#2_0" departPos="5.10" departSpeed="0.00" departDelay="0.00" arrival="288.00" arrivalLane="-519223973#1_1" arrivalPos="0.20" arrivalSpeed="3.21" duration="106.00" routeLength="565.74" waitingTime="30.00" waitingCount="5" stopTime="0.00" timeLoss="78.90" rerouteNo="1" devices="tripinfo_91 routing_91" vType="DEFAULT_VEHTYPE" speedFactor="0.89" vaporized=""/>
    <tripinfo id="51" depart="102.00" departLane="24613631#0_0" departPos="0.20" departSpeed="0.00" departDelay="0.00" arrival="295.00" arrivalLane="-59667619#5_0" arrivalPos="18.60" arrivalSpeed="10.70" duration="193.00" routeLength="597.84" waitingTime="100.00" waitingCount="9" stopTime="0.00" timeLoss="172.30" rerouteNo="1" devices="tripinfo_51 routing_51" vType="DEFAULT_VEHTYPE" speedFactor="1.17" vaporized=""/>
    <tripinfo id="58" depart="116.00" departLane="-1194188298#1_0" departPos="5.10" departSpeed="0.00" departDelay="0.00" arrival="296.00" arrivalLane="793372646#2_1" arrivalPos="0.20" arrivalSpeed="12.21" duration="180.00" routeLength="544.32" waitingTime="92.00" waitingCount="7" stopTime="0.00" timeLoss="157.65" rerouteNo="1" devices="tripinfo_58 routing_58" vType="DEFAULT_VEHTYPE" speedFactor="1.02" vaporized=""/>
    <tripinfo id="72" depart="144.00" departLane="-24090845#5_0" departPos="0.38" departSpeed="0.00" departDelay="0.00" arrival="296.00" arrivalLane="433783093#0_0" arrivalPos="0.20" arrivalSpeed="7.12" duration="152.00" routeLength="500.54" waitingTime="65.00" waitingCount="6" stopTime="0.00" timeLoss="128.76" rerouteNo="1" devices="tripinfo_72 routing_72" vType="DEFAULT_VEHTYPE" speedFactor="0.94" vaporized=""/>
    <tripinfo id="11" depart="22.00" departLane="1191329600#0_0" departPos="5.10" departSpeed="0.00" departDelay="0.00" arrival="300.00" arrivalLane="-435724103#1_0" arrivalPos="0.20" arrivalSpeed="23.12" duration="278.00" routeLength="1349.03" waitingTime="125.00" waitingCount="12" stopTime="0.00" timeLoss="224.80" rerouteNo="1" devices="tripinfo_11 routing_11" vType="DEFAULT_VEHTYPE" speedFactor="1.03" vaporized=""/>
    <tripinfo id="44" depart="88.00" departLane="-24090845#11_0" departPos="5.10" departSpeed="0.00" departDelay="0.00" arrival="300.00" arrivalLane="1362586127_0" arrivalPos="44.35" arrivalSpeed="18.32" duration="212.00" routeLength="638.79" waitingTime="134.00" waitingCount="6" stopTime="0.00" timeLoss="187.37" rerouteNo="1" devices="tripinfo_44 routing_44" vType="DEFAULT_VEHTYPE" speedFactor="1.04" vaporized=""/>
    <tripinfo id="96" depart="192.00" departLane="24075632#0_0" departPos="0.20" departSpeed="0.00" departDelay="0.00" arrival="300.00" arrivalLane="236157423#1_0" arrivalPos="43.79" arrivalSpeed="13.34" duration="108.00" routeLength="958.85" waitingTime="19.00" waitingCount="2" stopTime="0.00" timeLoss="57.16" rerouteNo="1" devices="tripinfo_96 routing_96" vType="DEFAULT_VEHTYPE" speedFactor="1.01" vaporized=""/>
    <tripinfo id="101" depart="202.00" departLane="313874093#1_0" departPos="5.10" departSpeed="0.00" departDelay="0.00" arrival="300.00" arrivalLane="435724088#0_0" arrivalPos="18.47" arrivalSpeed="20.51" duration="98.00" routeLength="464.43" waitingTime="42.00" waitingCount="3" stopTime="0.00" timeLoss="71.59" rerouteNo="1" devices="tripinfo_101 routing_101" vType="DEFAULT_VEHTYPE" speedFactor="0.96" vaporized=""/>
    <tripinfo id="28" depart="56.00" departLane="973275640#1_0" departPos="0.11" departSpeed="0.00" departDelay="0.00" arrival="301.00" arrivalLane="433783096#1_2" arrivalPos="0.20" arrivalSpeed="20.21" duration="245.00" routeLength="714.81" waitingTime="152.00" waitingCount="8" stopTime="0.00" timeLoss="217.60" rerouteNo="1" devices="tripinfo_28 routing_28" vType="DEFAULT_VEHTYPE" speedFactor="1.13" vaporized=""/>
    <tripinfo id="29" depart="58.00" departLane="316762110#1_0" departPos="5.10" departSpeed="0.00" departDelay="0.00" arrival="301.00" arrivalLane="435558491#1_0" arrivalPos="12.93" arrivalSpeed="25.80" duration="243.00" routeLength="1323.02" waitingTime="100.00" waitingCount="9" stopTime="0.00" timeLoss="188.54" rerouteNo="1" devices="tripinfo_29 routing_29" vType="DEFAULT_VEHTYPE" speedFactor="0.93" vaporized=""/>
    <tripinfo id="76" depart="152.00" departLane="805911051#0_0" departPos="5.10" departSpeed="0.00" departDelay="0.00" arrival="301.00" arrivalLane="316764836#0_3" arrivalPos="0.20" arrivalSpeed="8.43" duration="149.00" routeLength="971.27" waitingTime="44.00" waitingCount="5" stopTime="0.00" timeLoss="111.64" rerouteNo="1" devices="tripinfo_76 routing_76" vType="DEFAULT_VEHTYPE" speedFactor="1.03" vaporized=""/>
    <tripinfo id="92" depart="184.00" departLane="24102433#4_0" departPos="0.20" departSpeed="0.00" departDelay="0.00" arrival="305.00" arrivalLane="1028907899#1_1" arrivalPos="0.20" arrivalSpeed="22.26" duration="121.00" routeLength="772.96" waitingTime="39.00" waitingCount="4" stopTime="0.00" timeLoss="81.91" rerouteNo="1" devices="tripinfo_92 routing_92" vType="DEFAULT_VEHTYPE" speedFactor="0.83" vaporized=""/>
    <tripinfo id="111" depart="227.00" departLane="433784884#7_0" departPos="0.20" departSpeed="0.00" departDelay="5.00" arrival="305.00" arrivalLane="1106630540#2_0" arrivalPos="74.96" arrivalSpeed="18.07" duration="78.00" routeLength="412.38" waitingTime="26.00" waitingCount="3" stopTime="0.00" timeLoss="57.31" rerouteNo="1" devices="tripinfo_111 routing_111" vType="DEFAULT_VEHTYPE" speedFactor="0.87" vaporized=""/>
    <tripinfo id="84" depart="168.00" departLane="-683816243#1_0" departPos="0.20" departSpeed="0.00" departDelay="0.00" arrival="314.00" arrivalLane="24075632#2_0" arrivalPos="36.02" arrivalSpeed="15.70" duration="146.00" routeLength="1008.87" waitingTime="45.00" waitingCount="6" stopTime="0.00" timeLoss="107.42" rerouteNo="1" devices="tripinfo_84 routing_84" vType="DEFAULT_VEHTYPE" speedFactor="1.15" vaporized=""/>
    <tripinfo id="75" depart="150.00" departLane="1002803297#1_0" departPos="5.10" departSpeed="0.00" departDelay="0.00" arrival="317.00" arrivalLane="-435558488#0_0" arrivalPos="0.20" arrivalSpeed="17.51" duration="167.00" routeLength="1629.56" waitingTime="23.00" waitingCount="4" stopTime="0.00" timeLoss="102.52" rerouteNo="1" devices="tripinfo_75 routing_75" vType="DEFAULT_VEHTYPE" speedFactor="0.98" vaporized=""/>
    <tripinfo id="34" depart="68.00" departLane="59670543#1_0" departPos="5.10" departSpeed="0.00" departDelay="0.00" arrival="318.00" arrivalLane="1190700428#0_0" arrivalPos="0.20" arrivalSpeed="5.16" duration="250.00" routeLength="1350.95" waitingTime="113.00" waitingCount="10" stopTime="0.00" timeLoss="193.96" rerouteNo="1" devices="tripinfo_34 routing_34" vType="DEFAULT_VEHTYPE" speedFactor="0.99" vaporized=""/>
    <tripinfo id="87" depart="174.00" departLane="23825858#0_0" departPos="5.10" departSpeed="0.00" departDelay="0.00" arrival="321.00" arrivalLane="59667608_0" arrivalPos="0.20" arrivalSpeed="8.88" duration="147.00" routeLength="516.75" waitingTime="83.00" waitingCount="4" stopTime="0.00" timeLoss="118.65" rerouteNo="1" devices="tripinfo_87 routing_87" vType="DEFAULT_VEHTYPE" speedFactor="1.04" vaporized=""/>
    <tripinfo id="0" depart="0.00" departLane="433783094#0_0" departPos="5.10" departSpeed="0.00" departDelay="0.00" arrival="322.00" arrivalLane="-1217799538_0" arrivalPos="0.20" arrivalSpeed="5.54" duration="322.00" routeLength="1010.93" waitingTime="185.00" waitingCount="10" stopTime="0.00" timeLoss="283.67" rerouteNo="1" devices="tripinfo_0 routing_0" vType="DEFAULT_VEHTYPE" speedFactor="1.06" vaporized=""/>