<?xml version="1.0" encoding="UTF-8"?>

<!-- generated on 2026-03-24T13:54:28.364110+00:00 by Eclipse SUMO GUI 1.26.0
<sumoConfiguration xmlns:xsi="http://www.w3.org/2001/XMLSchema-instance" xsi:noNamespaceSchemaLocation="http://sumo.dlr.de/xsd/sumoConfiguration.xsd">

    <input>
        <net-file value="simulation/configs/../network/chicago.net.xml"/>
        <route-files value="simulation/configs/../routes/chicago_high.rou.xml"/>
    </input>

    <output>
        <tripinfo-output value="simulation/configs/../../results/tripinfo_high.xml"/>
        <edgedata-output value="simulation/configs/../../results/edge_data_high.xml"/>
    </output>

    <time>
        <begin value="0"/>
        <end value="3600"/>
    </time>

    <traci_server>
        <remote-port value="50774"/>
    </traci_server>

</sumoConfiguration>
-->

<tripinfos xmlns:xsi="http://www.w3.org/2001/XMLSchema-instance" xsi:noNamespaceSchemaLocation="http://sumo.dlr.de/xsd/tripinfo_file.xsd">
    <tripinfo id="6" depart="6.00" departLane="-1287862797_0" departPos="0.20" departSpeed="0.00" departDelay="0.00" arrival="51.00" arrivalLane="-833048839#3_0" arrivalPos="1.19" arrivalSpeed="15.26" duration="45.00" routeLength="430.60" waitingTime="13.00" waitingCount="1" stopTime="0.00" timeLoss="29.72" rerouteNo="1" devices="tripinfo_6 routing_6" vType="DEFAULT_VEHTYPE" speedFactor="1.05" vaporized=""/>
    <tripinfo id="41" depart="41.00" departLane="-292339723#2_0" departPos="5.10" departSpeed="0.00" departDelay="0.00" arrival="54.00" arrivalLane="-23825858#0_0" arrivalPos="17.42" arrivalSpeed="23.06" duration="13.00" routeLength="147.20" waitingTime="0.00" waitingCount="0" stopTime="0.00" timeLoss="6.84" rerouteNo="1" devices="tripinfo_41 routing_41" vType="DEFAULT_VEHTYPE" speedFactor="0.96" vaporized=""/>
    <tripinfo id="26" depart="26.00" departLane="-519223975_0" departPos="0.20" departSpeed="0.00" departDelay="0.00" arrival="57.00" arrivalLane="435724069#1_0" arrivalPos="30.47" arrivalSpeed="11.99" duration="31.00" routeLength="128.41" waitingTime="7.00" waitingCount="1" stopTime="0.00" timeLoss="19.87" rerouteNo="1" devices="tripinfo_26 routing_26" vType="DEFAULT_VEHTYPE" speedFactor="0.92" vaporized=""/>
    <tripinfo id="2" depart="2.00" departLane="435724069#1_0" departPos="5.10" departSpeed="0.00" departDelay="0.00" arrival="59.00" arrivalLane="433784889#3_1" arrivalPos="0.20" arrivalSpeed="26.82" duration="57.00" routeLength="540.14" waitingTime="8.00" waitingCount="1" stopTime="0.00" timeLoss="34.89" rerouteNo="1" devices="tripinfo_2 routing_2" vType="DEFAULT_VEHTYPE" speedFactor="1.01" vaporized=""/>
    <tripinfo id="14" depart="14.00" departLane="4476711#4_0" departPos="0.20" departSpeed="0.00" departDelay="0.00" arrival="61.00" arrivalLane="435724069#1_0" arrivalPos="30.47" arrivalSpeed="14.06" duration="47.00" routeLength="506.52" waitingTime="0.00" waitingCount="0" stopTime="0.00" timeLoss="23.06" rerouteNo="1" devices="tripinfo_14 routing_14" vType="DEFAULT_VEHTYPE" speedFactor="0.99" vaporized=""/>
    <tripinfo id="60" depart="60.00" departLane="1106630540#2_0" departPos="5.10" departSpeed="0.00" departDelay="0.00" arrival="77.00" arrivalLane="-24071819#0_0" arrivalPos="0.20" arrivalSpeed="18.72" duration="17.00" routeLength="161.06" waitingTime="0.00" waitingCount="0" stopTime="0.00" timeLoss="9.54" rerouteNo="1" devices="tripinfo_60 routing_60" vType="DEFAULT_VEHTYPE" speedFactor="1.08" vaporized=""/>
    <tripinfo id="19" depart="19.00" departLane="1038761526#0_0" departPos="5.10" departSpeed="0.00" departDelay="0.00" arrival="91.00" arrivalLane="1067743360#3_0" arrivalPos="0.20" arrivalSpeed="3.68" duration="72.00" routeLength="505.02" waitingTime="26.00" waitingCount="2" stopTime="0.00" timeLoss="54.10" rerouteNo="1" devices="tripinfo_19 routing_19" vType="DEFAULT_VEHTYPE" speedFactor="1.16" vaporized=""/>
    <tripinfo id="8" depart="8.00" departLane="1033716708#0_0" departPos="0.20" departSpeed="0.00" departDelay="0.00" arrival="100.00" arrivalLane="319345472#0_0" arrivalPos="43.93" arrivalSpeed="14.84" duration="92.00" routeLength="519.34" waitingTime="38.00" waitingCount="1" stopTime="0.00" timeLoss="66.18" rerouteNo="1" devices="tripinfo_8 routing_8" vType="DEFAULT_VEHTYPE" speedFactor="0.94" vaporized=""/>
    <tripinfo id="31" depart="31.00" departLane="1038761526#1_0" departPos="0.20" departSpeed="0.00" departDelay="0.00" arrival="101.00" arrivalLane="-134319745#1_0" arrivalPos="54.20" arrivalSpeed="21.62" duration="70.00" routeLength="515.94" waitingTime="26.00" waitingCount="2" stopTime="0.00" timeLoss="50.55" rerouteNo="1" devices="tripinfo_31 routing_31" vType="DEFAULT_VEHTYPE" speedFactor="1.15" vaporized=""/>
    <tripinfo id="17" depart="17.00" departLane="59410419#1_0" departPos="5.10" departSpeed="0.00" departDelay="0.00" arrival="102.00" arrivalLane="316764838#0_1" arrivalPos="0.20" arrivalSpeed="7.49" duration="85.00" routeLength="378.70" waitingTime="39.00" waitingCount="2" stopTime="0.00" timeLoss="66.67" rerouteNo="1" devices="tripinfo_17 routing_17" vType="DEFAULT_VEHTYPE" speedFactor="0.94" vaporized=""/>
    <tripinfo id="15" depart="15.00" departLane="134319745#4_0" departPos="0.20" departSpeed="0.00" departDelay="0.00" arrival="103.00" arrivalLane="316762110#3_0" arrivalPos="27.81" arrivalSpeed="16.47" duration="88.00" routeLength="746.12" waitingTime="20.00" waitingCount="1" stopTime="0.00" timeLoss="52.13" rerouteNo="1" devices="tripinfo_15 routing_15" vType="DEFAULT_VEHTYPE" speedFactor="0.93" vaporized=""/>
    <tripinfo id="4" depart="4.00" departLane="236157091#1_0" departPos="5.10" departSpeed="0.00" departDelay="0.00" arrival="109.00" arrivalLane="-1287862806_0" arrivalPos="0.20" arrivalSpeed="13.93" duration="105.00" routeLength="695.69" waitingTime="33.00" waitingCount="2" stopTime="0.00" timeLoss="73.71" rerouteNo="1" devices="tripinfo_4 routing_4" vType="DEFAULT_VEHTYPE" speedFactor="1.03" vaporized=""/>
    <tripinfo id="18" depart="18.00" departLane="435724011#1_0" departPos="0.20" departSpeed="0.00" departDelay="0.00" arrival="117.00" arrivalLane="-236157125#4_2" arrivalPos="0.20" arrivalSpeed="12.15" duration="99.00" routeLength="155.98" waitingTime="75.00" waitingCount="3" stopTime="0.00" timeLoss="84.60" rerouteNo="1" devices="tripinfo_18 routing_18" vType="DEFAULT_VEHTYPE" speedFactor="0.94" vaporized=""/>
    <tripinfo id="117" depart="117.00" departLane="59673547#1_0" departPos="0.20" departSpeed="0.00" departDelay="0.00" arrival="118.00" arrivalLane="59673547#1_0" arrivalPos="0.20" arrivalSpeed="2.17" duration="1.00" routeLength="0.00" waitingTime="0.00" waitingCount="0" stopTime="0.00" timeLoss="0.84" rerouteNo="1" devices="tripinfo_117 routing_117" vType="DEFAULT_VEHTYPE" speedFactor="1.00" vaporized=""/>
    <tripinfo id="28" depart="28.00" departLane="973275640#1_0" departPos="0.11" departSpeed="0.00" departDelay="0.00" arrival="141.00" arrivalLane="433783096#1_2" arrivalPos="0.20" arrivalSpeed="23.47" duration="113.00" routeLength="714.81" waitingTime="59.00" waitingCount="2" stopTime="0.00" timeLoss="86.53" rerouteNo="1" devices="tripinfo_28 routing_28" vType="DEFAULT_VEHTYPE" speedFactor="1.13" vaporized=""/>
    <tripinfo id="113" depart="113.00" departLane="-24090845#7_0" departPos="0.20" departSpeed="0.00" departDelay="0.00" arrival="143.00" arrivalLane="24090845#3_0" arrivalPos="42.57" arrivalSpeed="21.17" duration="30.00" routeLength="299.81" waitingTime="0.00" waitingCount="0" stopTime="0.00" timeLoss="14.97" rerouteNo="1" devices="tripinfo_113 routing_113" vType="DEFAULT_VEHTYPE" speedFactor="1.01" vaporized=""/>
    <tripinfo id="69" depart="69.00" departLane="23700520#4_0" departPos="5.10" departSpeed="0.00" departDelay="0.00" arrival="146.00" arrivalLane="294582657#5_1" arrivalPos="36.75" arrivalSpeed="20.96" duration="77.00" routeLength="370.96" waitingTime="36.00" waitingCount="2" stopTime="0.00" timeLoss="57.40" rerouteNo="1" devices="tripinfo_69 routing_69" vType="DEFAULT_VEHTYPE" speedFactor="1.02" vaporized=""/>
    <tripinfo id="101" depart="101.00" departLane="313874093#1_0" departPos="5.10" departSpeed="0.00" departDelay="0.00" arrival="146.00" arrivalLane="435724088#0_0" arrivalPos="18.47" arrivalSpeed="18.16" duration="45.00" routeLength="464.43" waitingTime="3.00" waitingCount="1" stopTime="0.00" timeLoss="18.88" rerouteNo="1" devices="tripinfo_101 routing_101" vType="DEFAULT_VEHTYPE" speedFactor="0.96" vaporized=""/>
    <tripinfo id="72" depart="72.00" departLane="-24090845#5_0" departPos="0.38" departSpeed="0.00" departDelay="0.00" arrival="154.00" arrivalLane="433783093#0_0" arrivalPos="0.20" arrivalSpeed="23.19" duration="82.00" routeLength="500.54" waitingTime="27.00" waitingCount="3" stopTime="0.00" timeLoss="58.61" rerouteNo="1" devices="tripinfo_72 routing_72" vType="DEFAULT_VEHTYPE" speedFactor="0.94" vaporized=""/>
    <tripinfo id="71" depart="71.00" departLane="1049318466#0_0" departPos="5.10" departSpeed="0.00" departDelay="0.00" arrival="163.00" arrivalLane="1035941401#1_2" arrivalPos="0.20" arrivalSpeed="22.57" duration="92.00" routeLength="660.82" waitingTime="31.00" waitingCount="2" stopTime="0.00" timeLoss="65.65" rerouteNo="1" devices="tripinfo_71 routing_71" vType="DEFAULT_VEHTYPE" speedFactor="0.97" vaporized=""/>
    <tripinfo id="39" depart="39.00" departLane="1449477173#4_0" departPos="5.10" departSpeed="0.00" departDelay="0.00" arrival="166.00" arrivalLane="1035941401#0_2" arrivalPos="53.95" arrivalSpeed="22.29" duration="127.00" routeLength="802.61" waitingTime="60.00" waitingCount="2" stopTime="0.00" timeLoss="92.67" rerouteNo="1" devices="tripinfo_39 routing_39" vType="DEFAULT_VEHTYPE" speedFactor="0.90" vaporized=""/>
    <tripinfo id="64" depart="64.00" departLane="435724093#0_0" departPos="0.20" departSpeed="0.00" departDelay="0.00" arrival="184.00" arrivalLane="-433784890#0_0" arrivalPos="17.79" arrivalSpeed="10.87" duration="120.00" routeLength="277.82" waitingTime="80.00" waitingCount="2" stopTime="0.00" timeLoss="104.64" rerouteNo="1" devices="tripinfo_64 routing_64" vType="DEFAULT_VEHTYPE" speedFactor="0.94" vaporized=""/>
    <tripinfo id="5" depart="5.00" departLane="1028907899#1_0" departPos="0.20" departSpeed="0.00" departDelay="0.00" arrival="186.00" arrivalLane="292339723#1_0" arrivalPos="20.67" arrivalSpeed="11.16" duration="181.00" routeLength="716.45" waitingTime="109.00" waitingCount="4" stopTime="0.00" timeLoss="146.45" rerouteNo="1" devices="tripinfo_5 routing_5" vType="DEFAULT_VEHTYPE" speedFactor="0.83" vaporized=""/>
    <tripinfo id="106" depart="106.00" departLane="319345471#1_0" departPos="5.10" departSpeed="0.00" departDelay="0.00" arrival="188.00" arrivalLane="433784889#2_0" arrivalPos="24.28" arrivalSpeed="15.18" duration="82.00" routeLength="504.33" waitingTime="31.00" waitingCount="1" stopTime="0.00" timeLoss="61.36" rerouteNo="1" devices="tripinfo_106 routing_106" vType="DEFAULT_VEHTYPE" speedFactor="1.01" vaporized=""/>
    <tripinfo id="33" depart="33.00" departLane="-973275640#0_0" departPos="5.10" departSpeed="0.00" departDelay="0.00" arrival="190.00" arrivalLane="833035173#2_0" arrivalPos="8.00" arrivalSpeed="22.97" duration="157.00" routeLength="964.37" waitingTime="61.00" waitingCount="3" stopTime="0.00" timeLoss="118.12" rerouteNo="1" devices="tripinfo_33 routing_33" vType="DEFAULT_VEHTYPE" speedFactor="1.17" vaporized=""/>
    <tripinfo id="1" depart="1.00" departLane="1051441727#3_1" departPos="5.10" departSpeed="0.00" departDelay="0.00" arrival="191.00" arrivalLane="1038761526#1_1" arrivalPos="0.20" arrivalSpeed="22.13" duration="190.00" routeLength="678.16" waitingTime="113.00" waitingCount="4" stopTime="0.00" timeLoss="160.70" rerouteNo="1" devices="tripinfo_1 routing_1" vType="DEFAULT_VEHTYPE" speedFactor="0.94" vaporized=""/>
    <tripinfo id="70" depart="70.00" departLane="1191328879#3_0" departPos="5.10" departSpeed="0.00" departDelay="0.00" arrival="191.00" arrivalLane="319345471#1_0" arrivalPos="47.44" arrivalSpeed="21.90" duration="121.00" routeLength="544.79" waitingTime="61.00" waitingCount="3" stopTime="0.00" timeLoss="99.08" rerouteNo="1" devices="tripinfo_70 routing_70" vType="DEFAULT_VEHTYPE" speedFactor="1.02" vaporized=""/>
    <tripinfo id="175" depart="175.00" departLane="-1033716708#0_0" departPos="0.20" departSpeed="0.00" departDelay="0.00" arrival="191.00" arrivalLane="1067743360#11_1" arrivalPos="10.88" arrivalSpeed="9.46" duration="16.00" routeLength="134.52" waitingTime="0.00" waitingCount="0" stopTime="0.00" timeLoss="7.98" rerouteNo="1" devices="tripinfo_175 routing_175" vType="DEFAULT_VEHTYPE" speedFactor="0.92" vaporized=""/>
    <tripinfo id="13" depart="13.00" departLane="-292339723#4_0" departPos="5.10" departSpeed="0.00" departDelay="0.00" arrival="192.00" arrivalLane="-294712584#1_0" arrivalPos="9.30" arrivalSpeed="17.77" duration="179.00" routeLength="667.07" waitingTime="107.00" waitingCount="4" stopTime="0.00" timeLoss="155.02" rerouteNo="1" devices="tripinfo_13 routing_13" vType="DEFAULT_VEHTYPE" speedFactor="1.12" vaporized=""/>
    <tripinfo id="68" depart="68.00" departLane="-833048839#0_0" departPos="5.10" departSpeed="0.00" departDelay="0.00" arrival="194.00" arrivalLane="1137122252#1_1" arrivalPos="0.20" arrivalSpeed="7.91" duration="126.00" routeLength="446.75" waitingTime="74.00" waitingCount="3" stopTime="0.00" timeLoss="109.65" rerouteNo="1" devices="tripinfo_68 routing_68" vType="DEFAULT_VEHTYPE" speedFactor="1.04" vaporized=""/>
    <tripinfo id="112" depart="112.00" departLane="1127665632#2_0" departPos="5.10" departSpeed="0.00" departDelay="0.00" arrival="194.00" arrivalLane="435724090#0_0" arrivalPos="18.34" arrivalSpeed="12.08" duration="82.00" routeLength="346.06" waitingTime="39.00" waitingCount="2" stopTime="0.00" timeLoss="68.27" rerouteNo="1" devices="tripinfo_112 routing_112" vType="DEFAULT_VEHTYPE" speedFactor="1.10" vaporized=""/>
    <tripinfo id="7" depart="7.00" departLane="433783097#2_0" departPos="5.10" departSpeed="0.00" departDelay="0.00" arrival="195.00" arrivalLane="315828468#1_1" arrivalPos="7.35" arrivalSpeed="13.13" duration="188.00" routeLength="1025.26" waitingTime="100.00" waitingCount="4" stopTime="0.00" timeLoss="143.69" rerouteNo="1" devices="tripinfo_7 routing_7" vType="DEFAULT_VEHTYPE" speedFactor="0.89" vaporized=""/>
    <tripinfo id="50" depart="50.00" departLane="59670543#1_0" departPos="5.10" departSpeed="0.00" departDelay="0.00" arrival="195.00" arrivalLane="1051441726#7_0" arrivalPos="49.39" arrivalSpeed="18.71" duration="145.00" routeLength="1154.21" waitingTime="43.00" waitingCount="4" stopTime="0.00" timeLoss="88.93" rerouteNo="1" devices="tripinfo_50 routing_50" vType="DEFAULT_VEHTYPE" speedFactor="0.85" vaporized=""/>
    <tripinfo id="91" depart="91.00" departLane="5263032#2_0" departPos="5.10" departSpeed="0.00" departDelay="0.00" arrival="195.00" arrivalLane="-519223973#1_1" arrivalPos="0.20" arrivalSpeed="2.59" duration="104.00" routeLength="565.74" waitingTime="43.00" waitingCount="2" stopTime="0.00" timeLoss="78.59" rerouteNo="1" devices="tripinfo_91 routing_91" vType="DEFAULT_VEHTYPE" speedFactor="0.89" vaporized=""/>
    <tripinfo id="3" depart="3.00" departLane="615645277#0_0" departPos="0.83" departSpeed="0.00" departDelay="0.00" arrival="197.00" arrivalLane="-24102433#4_0" arrivalPos="0.20" arrivalSpeed="5.86" duration="194.00" routeLength="952.56" waitingTime="104.00" waitingCount="4" stopTime="0.00" timeLoss="155.52" rerouteNo="1" devices="tripinfo_3 routing_3" vType="DEFAULT_VEHTYPE" speedFactor="1.08" vaporized=""/>
    <tripinfo id="24" depart="24.00" departLane="1051441726#4_0" departPos="0.20" departSpeed="0.00" departDelay="0.00" arrival="198.00" arrivalLane="805924007#0_0" arrivalPos="55.32" arrivalSpeed="20.82" duration="174.00" routeLength="912.47" waitingTime="84.00" waitingCount="4" stopTime="0.00" timeLoss="125.92" rerouteNo="1" devices="tripinfo_24 routing_24" vType="DEFAULT_VEHTYPE" speedFactor="0.83" vaporized=""/>
    <tripinfo id="9" depart="9.00" departLane="4476711#6_0" departPos="5.10" departSpeed="0.00" departDelay="0.00" arrival="199.00" arrivalLane="-1106630540#1_0" arrivalPos="2.20" arrivalSpeed="17.74" duration="190.00" routeLength="567.43" waitingTime="127.00" waitingCount="3" stopTime="0.00" timeLoss="161.45" rerouteNo="1" devices="tripinfo_9 routing_9" vType="DEFAULT_VEHTYPE" speedFactor="0.86" vaporized=""/>
    <tripinfo id="44" depart="44.00" departLane="-24090845#11_0" departPos="5.10" departSpeed="0.00" departDelay="0.00" arrival="199.00" arrivalLane="1362586127_0" arrivalPos="44.35" arrivalSpeed="5.35" duration="155.00" routeLength="638.79" waitingTime="81.00" waitingCount="3" stopTime="0.00" timeLoss="129.92" rerouteNo="1" devices="tripinfo_44 routing_44" vType="DEFAULT_VEHTYPE" speedFactor="1.04" vaporized=""/>
    <tripinfo id="125" depart="125.00" departLane="-316762111#1_0" departPos="5.10" departSpeed="0.00" departDelay="0.00" arrival="200.00" arrivalLane="316762110#4_0" arrivalPos="26.58" arrivalSpeed="21.00" duration="75.00" routeLength="268.02" waitingTime="47.00" waitingCount="1" stopTime="0.00" timeLoss="65.36" rerouteNo="1" devices="tripinfo_125 routing_125" vType="DEFAULT_VEHTYPE" speedFactor="1.15" vaporized=""/>
    <tripinfo id="165" depart="165.00" departLane="312901458#1_0" departPos="4.96" departSpeed="0.00" departDelay="0.00" arrival="202.00" arrivalLane="435724044#0_2" arrivalPos="0.20" arrivalSpeed="24.86" duration="37.00" routeLength="428.99" waitingTime="0.00" waitingCount="0" stopTime="0.00" timeLoss="17.50" rerouteNo="1" devices="tripinfo_165 routing_165" vType="DEFAULT_VEHTYPE" speedFactor="0.91" vaporized=""/>
    <tripinfo id="56" depart="56.00" departLane="435724109#2_0" departPos="0.20" departSpeed="0.00" departDelay="0.00" arrival="203.00" arrivalLane="294839950#4_1" arrivalPos="0.20" arrivalSpeed="22.96" duration="147.00" routeLength="562.38" waitingTime="89.00" waitingCount="2" stopTime="0.00" timeLoss="121.06" rerouteNo="1" devices="tripinfo_56 routing_56" vType="DEFAULT_VEHTYPE" speedFactor="0.90" vaporized=""/>
    <tripinfo id="85" depart="85.00" departLane="236157091#1_0" departPos="5.10" departSpeed="0.00" departDelay="0.00" arrival="203.00" arrivalLane="1051441730#0_1" arrivalPos="27.30" arrivalSpeed="24.77" duration="118.00" routeLength="671.98" waitingTime="50.00" waitingCount="2" stopTime="0.00" timeLoss="75.08" rerouteNo="1" devices="tripinfo_85 routing_85" vType="DEFAULT_VEHTYPE" speedFactor="0.98" vaporized=""/>
    <tripinfo id="49" depart="49.00" departLane="24071819#1_0" departPos="5.10" departSpeed="0.00" departDelay="0.00" arrival="207.00" arrivalLane="841064474#2_3" arrivalPos="0.30" arrivalSpeed="16.56" duration="158.00" routeLength="518.58" waitingTime="94.00" waitingCount="4" stopTime="0.00" timeLoss="131.80" rerouteNo="1" devices="tripinfo_49 routing_49" vType="DEFAULT_VEHTYPE" speedFactor="0.85" vaporized=""/>
    <tripinfo id="78" depart="78.00" departLane="4476711#5_0" departPos="5.10" departSpeed="0.00" departDelay="0.00" arrival="209.00" arrivalLane="-798192665#1_1" arrivalPos="0.89" arrivalSpeed="7.66" duration="131.00" routeLength="656.72" waitingTime="61.00" waitingCount="3" stopTime="0.00" timeLoss="105.23" rerouteNo="1" devices="tripinfo_78 routing_78" vType="DEFAULT_VEHTYPE" speedFactor="1.01" vaporized=""/>
    <tripinfo id="34" depart="34.00" departLane="59670543#1_0" departPos="5.10" departSpeed="0.00" departDelay="0.00" arrival="210.00" arrivalLane="1190700428#0_0" arrivalPos="0.20" arrivalSpeed="6.27" duration="176.00" routeLength="1350.95" waitingTime="54.00" waitingCount="3" stopTime="0.00" timeLoss="119.55" rerouteNo="1" devices="tripinfo_34 routing_34" vType="DEFAULT_VEHTYPE" speedFactor="0.99" vaporized=""/>
    <tripinfo id="108" depart="108.00" departLane="319345471#0_0" departPos="0.10" departSpeed="0.00" departDelay="0.00" arrival="212.00" arrivalLane="381820998#0_2" arrivalPos="0.20" arrivalSpeed="6.57" duration="104.00" routeLength="577.06" waitingTime="35.00" waitingCount="1" stopTime="0.00" timeLoss="81.55" rerouteNo="1" devices="tripinfo_108 routing_108" vType="DEFAULT_VEHTYPE" speedFactor="1.06" vaporized=""/>
    <tripinfo id="46" depart="46.00" departLane="-1127665632#0_0" departPos="0.20" departSpeed="0.00" departDelay="0.00" arrival="215.00" arrivalLane="435724044#1_1" arrivalPos="17.37" arrivalSpeed="26.73" duration="169.00" routeLength="740.57" waitingTime="106.00" waitingCount="3" stopTime="0.00" timeLoss="141.68" rerouteNo="1" devices="tripinfo_46 routing_46" vType="DEFAULT_VEHTYPE" speedFactor="1.00" vaporized=""/>
    <tripinfo id="88" depart="88.00" departLane="315828468#1_0" departPos="5.10" departSpeed="0.00" departDelay="0.00" arrival="224.00" arrivalLane="-23825858#3_0" arrivalPos="14.78" arrivalSpeed="9.53" duration="136.00" routeLength="410.58" waitingTime="91.00" waitingCount="2" stopTime="0.00" timeLoss="116.86" rerouteNo="1" devices="tripinfo_88 routing_88" vType="DEFAULT_VEHTYPE" speedFactor="1.01" vaporized=""/>
    <tripinfo id="16" depart="16.00" departLane="4630404#4_0" departPos="0.20" departSpeed="0.00" departDelay="0.00" arrival="226.00" arrivalLane="381820996#3_3" arrivalPos="0.20" arrivalSpeed="4.55" duration="210.00" routeLength="648.61" waitingTime="128.00" waitingCount="5" stopTime="0.00" timeLoss="180.54" rerouteNo="1" devices="tripinfo_16 routing_16" vType="DEFAULT_VEHTYPE" speedFactor="0.88" vaporized=""/>
    <tripinfo id="141" depart="143.00" departLane="145846251#1_0" departPos="5.10" departSpeed="0.00" departDelay="2.00" arrival="226.00" arrivalLane="381820998#1_1" arrivalPos="0.20" arrivalSpeed="3.85" duration="83.00" routeLength="185.98" waitingTime="42.00" waitingCount="4" stopTime="0.00" timeLoss="77.15" rerouteNo="1" devices="tripinfo_141 routing_141" vType="DEFAULT_VEHTYPE" speedFactor="1.16" vaporized=""/>
    <tripinfo id="89" depart="89.00" departLane="998704232#2_0" departPos="0.20" departSpeed="0.00" departDelay="0.00" arrival="229.00" arrivalLane="519223973#0_1" arrivalPos="52.22" arrivalSpeed="22.65" duration="140.00" routeLength="1073.14" waitingTime="49.00" waitingCount="4" stopTime="0.00" timeLoss="95.69" rerouteNo="1" devices="tripinfo_89 routing_89" vType="DEFAULT_VEHTYPE" speedFactor="1.02" vaporized=""/>
    <tripinfo id="47" depart="49.00" departLane="1051441726#4_0" departPos="0.20" departSpeed="0.00" departDelay="2.00" arrival="230.00" arrivalLane="433783096#1_2" arrivalPos="0.20" arrivalSpeed="21.01" duration="181.00" routeLength="675.10" waitingTime="105.00" waitingCount="3" stopTime="0.00" timeLoss="150.72" rerouteNo="1" devices="tripinfo_47 routing_47" vType="DEFAULT_VEHTYPE" speedFactor="0.90" vaporized=""/>
    <tripinfo id="58" depart="58.00" departLane="-1194188298#1_0" departPos="5.10" departSpeed="0.00" departDelay="0.00" arrival="231.00" arrivalLane="793372646#2_1" arrivalPos="0.20" arrivalSpeed="12.96" duration="173.00" routeLength="544.32" waitingTime="100.00" waitingCount="5" stopTime="0.00" timeLoss="151.56" rerouteNo="1" devices="tripinfo_58 routing_58" vType="DEFAULT_VEHTYPE" speedFactor="1.02" vaporized=""/>
    <tripinfo id="211" depart="211.00" departLane="145857414#1_0" departPos="5.10" departSpeed="0.00" departDelay="0.00" arrival="232.00" arrivalLane="315089479#1_1" arrivalPos="10.40" arrivalSpeed="10.62" duration="21.00" routeLength="150.20" waitingTime="0.00" waitingCount="0" stopTime="0.00" timeLoss="15.74" rerouteNo="1" devices="tripinfo_211 routing_211" vType="DEFAULT_VEHTYPE" speedFactor="1.04" vaporized=""/>
    <tripinfo id="43" depart="43.00" departLane="445290295#0_0" departPos="0.20" departSpeed="0.00" departDelay="0.00" arrival="233.00" arrivalLane="236157423#0_0" arrivalPos="65.39" arrivalSpeed="13.90" duration="190.00" routeLength="914.83" waitingTime="87.00" waitingCount="5" stopTime="0.00" timeLoss="145.65" rerouteNo="1" devices="tripinfo_43 routing_43" vType="DEFAULT_VEHTYPE" speedFactor="1.04" vaporized=""/>
    <tripinfo id="10" depart="10.00" departLane="4476711#3_0" departPos="0.20" departSpeed="0.00" departDelay="0.00" arrival="235.00" arrivalLane="435724011#0_0" arrivalPos="40.46" arrivalSpeed="20.35" duration="225.00" routeLength="820.73" waitingTime="145.00" waitingCount="4" stopTime="0.00" timeLoss="191.41" rerouteNo="1" devices="tripinfo_10 routing_10" vType="DEFAULT_VEHTYPE" speedFactor="1.09" vaporized=""/>
    <tripinfo id="21" depart="21.00" departLane="-294712587_0" departPos="0.20" departSpeed="0.00" departDelay="0.00" arrival="236.00" arrivalLane="1051441730#0_0" arrivalPos="27.30" arrivalSpeed="23.39" duration="215.00" routeLength="1251.15" waitingTime="112.00" waitingCount="4" stopTime="0.00" timeLoss="165.28" rerouteNo="1" devices="tripinfo_21 routing_21" vType="DEFAULT_VEHTYPE" speedFactor="1.01" vaporized=""/>
    <tripinfo id="32" depart="32.00" departLane="1127665632#2_0" departPos="5.10" departSpeed="0.00" departDelay="0.00" arrival="236.00" arrivalLane="1051441727#3_1" arrivalPos="41.60" arrivalSpeed="16.35" duration="204.00" routeLength="1166.62" waitingTime="85.00" waitingCount="5" stopTime="0.00" timeLoss="156.83" rerouteNo="1" devices="tripinfo_32 routing_32" vType="DEFAULT_VEHTYPE" speedFactor="1.01" vaporized=""/>
    <tripinfo id="53" depart="53.00" departLane="1067743360#6_0" departPos="0.24" departSpeed="0.00" departDelay="0.00" arrival="236.00" arrivalLane="433783095#2_1" arrivalPos="0.20" arrivalSpeed="23.02" duration="183.00" routeLength="581.43" waitingTime="107.00" waitingCount="4" stopTime="0.00" timeLoss="160.82" rerouteNo="1" devices="tripinfo_53 routing_53" vType="DEFAULT_VEHTYPE" speedFactor="1.10" vaporized=""/>
    <tripinfo id="126" depart="126.00" departLane="435724038_0" departPos="5.10" departSpeed="0.00" departDelay="0.00" arrival="236.00" arrivalLane="-934416474#0_0" arrivalPos="49.06" arrivalSpeed="24.56" duration="110.00" routeLength="646.40" waitingTime="36.00" waitingCount="3" stopTime="0.00" timeLoss="82.39" rerouteNo="1" devices="tripinfo_126 routing_126" vType="DEFAULT_VEHTYPE" speedFactor="1.03" vaporized=""/>
    <tripinfo id="204" depart="204.00" departLane="435724093#0_0" departPos="0.20" departSpeed="0.00" departDelay="0.00" arrival="236.00" arrivalLane="294712584#1_0" arrivalPos="9.30" arrivalSpeed="16.28" duration="32.00" routeLength="281.06" waitingTime="0.00" waitingCount="0" stopTime="0.00" timeLoss="20.35" rerouteNo="1" devices="tripinfo_204 routing_204" vType="DEFAULT_VEHTYPE" speedFactor="1.07" vaporized=""/>
    <tripinfo id="74" depart="74.00" departLane="1049318468#1_0" departPos="5.10" departSpeed="0.00" departDelay="0.00" arrival="239.00" arrivalLane="433784884#9_1" arrivalPos="44.91" arrivalSpeed="21.37" duration="165.00" routeLength="824.35" waitingTime="81.00" waitingCount="4" stopTime="0.00" timeLoss="132.95" rerouteNo="1" devices="tripinfo_74 routing_74" vType="DEFAULT_VEHTYPE" speedFactor="0.96" vaporized=""/>
    <tripinfo id="129" depart="129.00" departLane="-1049318473#1_0" departPos="5.10" departSpeed="0.00" departDelay="0.00" arrival="242.00" arrivalLane="435724109#1_1" arrivalPos="59.81" arrivalSpeed="17.28" duration="113.00" routeLength="472.20" waitingTime="57.00" waitingCount="2" stopTime="0.00" timeLoss="90.64" rerouteNo="1" devices="tripinfo_129 routing_129" vType="DEFAULT_VEHTYPE" speedFactor="1.01" vaporized=""/>
    <tripinfo id="95" depart="95.00" departLane="1051441726#3_0" departPos="5.10" departSpeed="0.00" departDelay="0.00" arrival="244.00" arrivalLane="435724119#1_2" arrivalPos="0.20" arrivalSpeed="8.09" duration="149.00" routeLength="856.25" waitingTime="66.00" waitingCount="3" stopTime="0.00" timeLoss="116.54" rerouteNo="1" devices="tripinfo_95 routing_95" vType="DEFAULT_VEHTYPE" speedFactor="1.06" vaporized=""/>
    <tripinfo id="98" depart="106.00" departLane="316762110#0_0" departPos="0.20" departSpeed="0.00" departDelay="8.00" arrival="246.00" arrivalLane="435724041#2_0" arrivalPos="23.41" arrivalSpeed="14.08" duration="140.00" routeLength="853.75" waitingTime="62.00" waitingCount="2" stopTime="0.00" timeLoss="110.53" rerouteNo="1" devices="tripinfo_98 routing_98" vType="DEFAULT_VEHTYPE" speedFactor="1.12" vaporized=""/>
    <tripinfo id="111" depart="111.00" departLane="433784884#7_0" departPos="0.20" departSpeed="0.00" departDelay="0.00" arrival="246.00" arrivalLane="1106630540#2_0" arrivalPos="74.96" arrivalSpeed="18.17" duration="135.00" routeLength="412.38" waitingTime="84.00" waitingCount="4" stopTime="0.00" timeLoss="113.74" rerouteNo="1" devices="tripinfo_111 routing_111" vType="DEFAULT_VEHTYPE" speedFactor="0.87" vaporized=""/>
    <tripinfo id="149" depart="149.00" departLane="59667619#4_0" departPos="5.10" departSpeed="0.00" departDelay="0.00" arrival="246.00" arrivalLane="59410419#2_0" arrivalPos="0.20" arrivalSpeed="20.49" duration="97.00" routeLength="448.09" waitingTime="37.00" waitingCount="3" stopTime="0.00" timeLoss="77.65" rerouteNo="1" devices="tripinfo_149 routing_149" vType="DEFAULT_VEHTYPE" speedFactor="1.04" vaporized=""/>
    <tripinfo id="84" depart="84.00" departLane="-683816243#1_0" departPos="0.20" departSpeed="0.00" departDelay="0.00" arrival="247.00" arrivalLane="24075632#2_0" arrivalPos="36.02" arrivalSpeed="15.30" duration="163.00" routeLength="1008.87" waitingTime="73.00" waitingCount="4" stopTime="0.00" timeLoss="125.50" rerouteNo="1" devices="tripinfo_84 routing_84" vType="DEFAULT_VEHTYPE" speedFactor="1.15" vaporized=""/>
    <tripinfo id="139" depart="139.00" departLane="615900433#5_1" departPos="0.71" departSpeed="0.00" departDelay="0.00" arrival="250.00" arrivalLane="1015181072_0" arrivalPos="0.30" arrivalSpeed="26.08" duration="111.00" routeLength="780.31" waitingTime="56.00" waitingCount="2" stopTime="0.00" timeLoss="80.09" rerouteNo="1" devices="tripinfo_139 routing_139" vType="DEFAULT_VEHTYPE" speedFactor="0.95" vaporized=""/>